version 2
run Simulations-66-20191218-11:09:24-65753
attr configname Simulations
attr datetime 20191218-11:09:24
attr experiment Simulations
attr inifile omnetpp.ini
attr iterationvars "$seed=65, $0=8400"
attr iterationvarsf seed=65,8400-
attr measurement "$seed=65, $0=8400"
attr network WifiCelNetPassiveQueue
attr processid 65753
attr repetition 0
attr replication #0
attr resultdir results/Simulations/omnet
attr runnumber 66
attr seedset 65
itervar seed 65
param **.numJobs 10000
param *.OFFLOAD.deadline exponential(8400s)
param *.source.interArrivalTime exponential(120s)
param *.WIFI.serviceTime exponential(40s)
param *.CELL.serviceTime exponential(400s)
param *.OFFLOAD.switchToWi exponential(1524s)
param *.OFFLOAD.switchToCel exponential(3120s)
param *.LOCAL.serviceTime exponential(5s)
param *.REMOTE.serviceTime exponential(1s)

vector 0 WifiCelNetPassiveQueue.WIFI serviceTime:vector ETV
attr interpolationmode none
attr title "wifi Service, vector"
attr unit s
vector 1 WifiCelNetPassiveQueue.WIFI responseTime:vector ETV
attr interpolationmode none
attr title "Response Time, vector"
attr unit s
vector 2 WifiCelNetPassiveQueue.REMOTE serviceTime:vector ETV
attr interpolationmode none
attr title "wifi Service, vector"
attr unit s
vector 3 WifiCelNetPassiveQueue.REMOTE responseTime:vector ETV
attr interpolationmode none
attr title "Response Time, vector"
attr unit s
vector 4 WifiCelNetPassiveQueue.sink lifeTime:vector ETV
attr interpolationmode none
attr title "lifetime of arrived jobs, vector"
attr unit s
vector 5 WifiCelNetPassiveQueue.OFFLOAD storeCelTime:vector ETV
attr interpolationmode none
attr title "Time in Cell, vector"
attr unit s
vector 6 WifiCelNetPassiveQueue.CELL serviceTime:vector ETV
attr interpolationmode none
attr title "wifi Service, vector"
attr unit s
vector 7 WifiCelNetPassiveQueue.CELL responseTime:vector ETV
attr interpolationmode none
attr title "Response Time, vector"
attr unit s
vector 8 WifiCelNetPassiveQueue.OFFLOAD queueLength:vector ETV
attr interpolationmode sample-hold
attr title "queue length, vector"
vector 9 WifiCelNetPassiveQueue.OFFLOAD storeDeadline:vector ETV
attr interpolationmode none
attr title "deadline, vector"
attr unit s
vector 10 WifiCelNetPassiveQueue.LOCAL serviceTime:vector ETV
attr interpolationmode none
attr title "wifi Service, vector"
attr unit s
vector 11 WifiCelNetPassiveQueue.LOCAL responseTime:vector ETV
attr interpolationmode none
attr title "Response Time, vector"
attr unit s
vector 12 WifiCelNetPassiveQueue.OFFLOAD storeWifiTime:vector ETV
attr interpolationmode none
attr title "Time in Wifi, vector"
attr unit s
vector 13 WifiCelNetPassiveQueue.REMOTE queueLength:vector ETV
attr interpolationmode sample-hold
attr title "queue length, vector"
vector 14 WifiCelNetPassiveQueue.LOCAL queueLength:vector ETV
attr interpolationmode sample-hold
attr title "queue length, vector"
0	175733	3000114.072732916676	29.803590575615
0	175740	3000257.960357317501	36.77592260426
0	175828	3003469.057367589358	138.30682954274
0	175833	3003500.599273120615	31.541905531257
0	175838	3003502.183571007313	1.584297886698
0	175843	3003539.284536498106	37.100965490793
0	175850	3003620.969409599574	81.684873101468
0	175859	3003765.182834000466	144.21342440089
0	175864	3003769.609724254529	4.426890254063
0	175871	3003821.965274019741	52.355549765212
0	175878	3003900.029961817739	78.064687797998
0	175887	3004186.192971669716	286.16300985198
0	175892	3004218.574520702328	32.381549032612
0	175901	3004315.580738137674	97.006217435346
0	175906	3004356.584492734326	41.003754596652
0	175911	3004383.205246685605	26.620753951279
0	175916	3004397.47589562312	14.270648937515
0	175921	3004400.472075261733	2.996179638613
0	175928	3004405.035546875084	4.563471613351
0	175947	3004981.615968427718	79.15778517455
0	175952	3005003.031616117587	21.415647689869
0	175963	3005054.4380230028	51.406406885213
0	175968	3005062.773368891184	8.335345888384
0	175973	3005143.781701375903	81.008332484719
0	175978	3005189.631531841649	45.849830465746
0	175983	3005208.602180063848	18.970648222199
0	175990	3005265.325762533939	56.723582470091
0	175995	3005298.701821095575	33.376058561636
0	176000	3005334.01919862491	35.317377529335
0	176007	3005391.362499798632	57.343301173722
0	176023	3005772.113855094134	10.649468094867
0	176028	3005774.732847259831	2.618992165697
0	176033	3005797.338369779365	22.605522519534
0	176038	3005804.173568922199	6.835199142834
0	176043	3005806.742143001625	2.568574079426
0	176050	3005867.46411850551	60.721975503885
0	176057	3005888.195159719005	20.731041213495
0	176064	3005905.302627564865	17.10746784586
0	176069	3005914.612500404852	9.309872839987
0	176074	3005951.488390849554	36.875890444702
0	176081	3006238.555229051302	25.683658508779
0	176088	3006449.477181585382	148.79260295444
0	176103	3006749.862137331204	169.81422814622
0	176108	3006753.10486408436	3.242726753156
0	176113	3006762.580270632774	9.475406548414
0	176122	3006858.094014810887	5.826712630709
0	176127	3006891.078397066179	32.984382255292
0	176140	3007570.500513672401	89.581602582904
0	176145	3007594.828443956832	24.327930284431
0	176150	3007620.713921637879	25.885477681047
0	176157	3007667.336171972095	2.668174539282
0	176164	3007895.260908013268	7.687095112416
0	176171	3007942.935760296106	28.147623432977
0	176178	3008138.93804284192	50.391185665906
0	176185	3008288.898967340282	1.038972662835
0	176194	3008465.814494368542	102.70553412932
0	176197	3008465.960420875084	0.145926506542
0	176208	3009005.63846413065	50.803372961697
0	176213	3009010.290905335129	4.652441204479
0	176220	3009363.747417539899	33.644660170038
0	176229	3009468.814584646917	47.343761040009
0	176234	3009479.891656970856	11.077072323939
0	176241	3009572.991596838107	65.538766319097
0	176248	3009621.797857290643	33.836072412936
0	176255	3009943.512385059699	10.957682715657
0	176262	3010101.607498182644	48.190442284807
0	176269	3010355.802222322546	74.139822749637
0	176276	3010502.327331185025	8.985005823134
0	176285	3010687.337211762979	120.9435776353
0	176290	3010691.914777102224	4.577565339245
0	176299	3010743.084760726716	45.995539543194
0	176304	3010771.806282996083	28.721522269367
0	176311	3010904.588624104056	18.094983553443
0	176381	3012489.416308316227	59.662167266517
0	176388	3012530.532746290612	41.116437974385
0	176395	3012623.605233405647	93.072487115035
0	176400	3012643.278637745715	19.673404340068
0	176405	3012645.218368520197	1.939730774482
0	176410	3012653.548831069024	8.330462548827
0	176415	3012654.415895051776	0.867063982752
0	176424	3012707.557427786523	53.141532734747
0	176431	3012761.609966926489	54.052539139966
0	176436	3012815.384337129414	53.774370202925
0	176443	3012910.584994403226	95.200657273812
0	176448	3012916.614162413071	6.029168009845
0	176459	3013098.488323986942	181.87416157387
0	176464	3013146.133731528681	47.645407541739
0	176471	3013230.723759750103	84.590028221422
0	176476	3013235.777901641261	5.054141891158
0	176481	3013249.120088896391	13.34218725513
0	176512	3014649.393944392938	1.011318699176
0	176519	3014836.686539419041	187.2925950261
0	176524	3014867.137165972243	30.450626553202
0	176529	3014886.106822069501	18.969656097258
0	176534	3014903.327071538614	17.220249469113
0	176539	3015009.689986777086	106.36291523847
0	176544	3015015.591392066026	5.90140528894
0	176553	3015054.185637831025	38.594245764999
0	176560	3015305.555828221924	13.356986390702
0	176569	3015516.397389847531	24.202994274431
0	176574	3015545.859634053289	29.462244205758
0	176581	3015578.547857745143	21.412067356525
0	176588	3015691.45476586641	2.33051761652
0	176597	3015736.000402710291	20.597707085202
0	176602	3015755.628793147377	19.628390437086
0	176609	3015786.088480452474	13.212042310985
0	176616	3015931.199032512858	9.999552738403
0	176625	3015990.344001626033	22.467479713904
0	176630	3016002.641723177067	12.297721551034
0	176641	3016275.68774953893	131.23268847228
0	176646	3016277.014622390878	1.326872851948
0	176651	3016313.008739296577	35.994116905699
0	176658	3016325.179954033572	7.591764164324
0	176665	3016380.604240561552	21.844187932505
0	176672	3016391.092509801441	3.970395328988
0	176679	3016523.43090628837	5.448531507036
0	176686	3016529.560467289669	0.004852149618
0	176693	3016557.309521367191	25.048401373656
0	176702	3017122.10749664379	140.28558519776
0	176707	3017125.990574079014	3.883077435224
0	176716	3017308.451746053967	156.02996240627
0	176721	3017322.51133963354	14.059593579573
0	176728	3017348.165775282419	22.239055892626
0	176737	3017448.080625614357	90.339314855798
0	176742	3017450.767559606067	2.68693399171
0	176751	3017541.10362086709	44.284129505778
0	176756	3017558.748656566993	17.645035699903
0	176763	3017618.407049689538	15.645791447327
0	176774	3017838.524913204726	24.065997489715
0	176779	3017857.246932160026	18.7220189553
0	176784	3017862.504423126794	5.257490966768
0	176791	3018043.165149597806	2.662401427622
0	176798	3018078.03516439684	19.125285953869
0	176811	3018297.846514897827	114.63922016367
0	176816	3018300.282422330234	2.435907432407
0	176823	3018351.187387294099	50.904964963865
0	176828	3018365.660419854183	14.473032560084
0	176837	3018571.210625720754	205.55020586657
0	176842	3018586.431763382054	15.2211376613
0	176853	3018653.124019736446	66.692256354392
0	176858	3018667.292992140078	14.168972403632
0	176863	3018683.966439801528	16.67344766145
0	176870	3018824.616522960614	140.65008315909
0	176875	3018887.31116136226	62.694638401646
0	176882	3019053.2313531862	5.188928086263
0	176891	3019227.808397030164	45.018380781826
0	176896	3019233.367290381477	5.558893351313
0	176903	3019254.098400739387	15.318315783482
0	176912	3019282.581083073302	17.88609382842
0	176917	3019299.486654048937	16.905570975635
0	176924	3019330.646312352232	0.956324877129
0	176931	3019359.255504809754	24.575969790555
0	176942	3019534.582672364436	55.612674471733
0	176947	3019569.947605543379	35.364933178943
0	176952	3019575.120255915037	5.172650371658
0	177063	3022921.253028066809	5.377584986421
0	177068	3022927.373140871345	6.120112804536
0	177077	3023074.311818987127	146.93867811578
0	177082	3023081.253096295044	6.941277307917
0	177087	3023105.541861500784	24.28876520574
0	177092	3023127.067884138621	21.526022637837
0	177097	3023135.328817945608	8.260933806987
0	177102	3023178.740172445369	43.411354499761
0	177109	3023250.897687383475	72.157514938106
0	177114	3023272.434687832123	21.537000448648
0	177119	3023301.61435991536	29.179672083237
0	177125	3023335.259879933938	33.645520018578
0	177134	3023589.075272468774	253.81539253484
0	177139	3023618.278865316977	29.203592848203
0	177144	3023657.859406766842	39.580541449865
0	177149	3023665.191136118285	7.331729351443
0	177154	3023679.559337425012	14.368201306727
0	177159	3023696.517874948976	16.958537523964
0	177164	3023716.496092419967	19.978217470991
0	177173	3023896.673482484874	180.17739006491
0	177178	3024012.181410238181	115.50792775331
0	177183	3024014.998013594587	2.816603356406
0	177190	3024141.076543623963	34.925043261443
0	177203	3024235.975783061411	63.351255413918
0	177208	3024274.669042412016	38.693259350605
0	177213	3024306.428222117114	31.759179705098
0	177220	3024414.564062512764	108.13584039565
0	177227	3024518.697967993031	104.13390548027
0	177234	3024639.403522521282	120.70555452825
0	177241	3024710.378652491207	70.975129969925
0	177246	3024724.895038225256	14.516385734049
0	177253	3024946.154919552757	29.855073013899
0	177262	3025167.683625029755	175.71930375249
0	177267	3025173.754024575246	6.070399545491
0	177274	3025184.938070637177	0.69407222675
0	177283	3025529.527965468981	125.66191346414
0	177290	3025552.785496347309	23.257530878328
0	177299	3025760.694485843931	207.90898949662
0	177304	3025821.88709719536	61.192611351429
0	177309	3025851.148920206192	29.261823010832
0	177316	3026386.960279229568	56.426127963101
0	177323	3026394.967011916483	7.73264907284
0	177330	3026470.628671180685	32.128039342937
0	177337	3026472.242435967305	1.082133377055
0	177388	3029057.378412334343	58.116490143811
0	177393	3029062.298392194077	4.919979859734
0	177399	3029069.649602025724	7.351209831647
0	177404	3029112.189742921031	42.540140895307
0	177409	3029119.002021224672	6.812278303641
0	177414	3029133.30922869779	14.307207473118
0	177423	3029159.998698087947	26.689469390157
0	177430	3029195.871284508259	35.872586420312
0	177435	3029198.484950988511	2.613666480252
0	177446	3029276.6115858656	78.126634877089
0	177451	3029291.348649621006	14.737063755406
0	177456	3029357.486934003838	66.138284382832
0	177461	3029363.63412345033	6.147189446492
0	177470	3029408.934266681248	39.50144185234
0	177475	3029410.256629588808	1.32236290756
0	177482	3029521.093010945073	47.044271389849
0	177489	3029576.151418766658	0.436435144437
0	177496	3029741.51950262515	40.427788052208
0	177503	3029806.588706163023	57.202271219005
0	177516	3029905.379509308503	59.311380573739
0	177521	3029906.114865904368	0.735356595865
0	177528	3030074.225995174845	47.448982941056
0	177535	3030264.825892776019	97.894043264241
0	177542	3030394.931369630699	3.312868750148
0	177549	3030448.39268966297	3.139077620443
0	177556	3030542.588943890383	8.908296897883
0	177563	3030574.818704146638	18.814365625349
0	177572	3030827.165055643776	27.007866990083
0	177579	3030894.739036170646	67.57398052687
0	177584	3030917.105630137421	22.366593966775
0	177591	3031010.941562689609	12.681926483546
0	177598	3031086.853121028631	16.531013576394
0	177605	3031190.27733883638	25.848241141732
0	177614	3031596.123917539815	60.411363855817
0	177619	3031600.01224180846	3.888324268645
0	177630	3031842.33085928139	227.18010709051
0	177635	3031850.01771727511	7.68685799372
0	177640	3031866.233456651119	16.215739376009
0	177649	3031984.421004938809	14.513869733522
0	177654	3032004.159085331842	19.738080393033
0	177661	3032165.440303263043	60.616989710497
0	177668	3032224.623427321104	21.555939811055
0	177675	3032272.236651228143	39.363727808023
0	177682	3032506.111453249676	33.811476399005
0	177689	3032584.752399295087	75.534755301362
0	177696	3032685.110660998039	26.059477923562
0	177703	3032855.93134762255	70.679809187382
0	177710	3032880.229797365201	14.378537433477
0	177717	3033069.173678543576	2.76177511382
0	177724	3033274.638258638589	13.689895058151
0	177733	3033422.772923910467	65.097690721187
0	177740	3033498.946516627597	76.17359271713
0	177745	3033510.503735080818	11.557218453221
0	177752	3034076.809796646513	79.498225437751
0	177759	3034644.577720742913	42.751470020096
0	177766	3034698.818984102993	16.810053855922
0	177777	3034863.732628818585	65.746665043257
0	177782	3034866.931068632705	3.19843981412
0	177789	3034916.371437628114	49.440368995409
0	177794	3035002.665427051968	86.293989423854
0	177805	3035110.244823991401	75.363011593383
0	177808	3035110.427069352165	0.182245360764
0	177815	3035136.142652707952	25.715583355787
0	177822	3035195.214192099709	7.628552507193
0	177833	3035247.04841459535	25.933927293776
0	177838	3035255.234196423804	8.185781828454
0	177841	3035256.594024179953	1.359827756149
0	177850	3035342.268206378912	17.445423954608
0	177857	3035429.928647168409	23.020293053525
0	177866	3035540.857978012593	25.921788644997
0	177871	3035552.024673985075	11.166695972482
0	177878	3036052.650703120568	5.943880194141
0	177885	3036097.720557706659	25.002083967795
0	177892	3036261.96900748366	0.297769960091
0	177903	3036370.572644507675	91.541832650528
0	177908	3036415.716208261689	45.143563754014
0	177913	3036430.1076776717	14.391469410011
0	177920	3036532.708666137063	1.760795136039
0	177931	3036806.098345390439	23.986973667983
0	177936	3036900.916116874733	94.817771484294
0	177941	3036945.772195779414	44.856078904681
0	177950	3037311.333001257036	22.044589648703
0	177955	3037325.549553010719	14.216551753683
0	178021	3039067.437525221596	0.756588287036
0	178026	3039135.79233904247	68.354813820874
0	178031	3039150.747645101129	14.955306058659
0	178036	3039186.791282557745	36.043637456616
0	178045	3039223.370758874873	36.579476317128
0	178050	3039252.475077793109	29.104318918236
0	178059	3039389.22021113819	136.74513334508
0	178064	3039421.843908067122	32.623696928932
0	178069	3039456.364800890861	34.520892823739
0	178076	3039480.187198368847	13.218086609831
0	178083	3039508.853633382982	6.133537244634
0	178090	3040057.27064367069	31.868472016989
0	178097	3040249.22647640793	92.369664640926
0	178104	3040313.469584379196	51.845871173142
0	178113	3040479.635657455662	123.08140131726
0	178118	3040487.264408710792	7.62875125513
0	178125	3040679.760238367383	4.899463713069
0	178134	3040851.459642835536	53.796553620811
0	178143	3040991.518667698738	140.0590248632
0	178150	3041063.431847821649	71.913180122911
0	178155	3041068.767987540114	5.336139718465
0	178158	3041068.784803374582	0.016815834468
0	178167	3041380.221058549006	85.121208620472
0	178174	3041711.804823623562	51.322410605031
0	178181	3041735.455916185158	3.66266311941
0	178188	3041767.684998300981	6.408657792776
0	178195	3041803.515749508022	2.906570516215
0	178206	3042158.290381150325	56.290822574326
0	178213	3042293.220001925044	134.92962077472
0	178218	3042295.459474831975	2.239472906931
0	178286	3044257.218531887915	10.5159242854
0	178293	3044281.357497391079	24.138965503164
0	178298	3044337.694329015578	56.336831624499
0	178306	3044414.78875728719	77.094428271612
0	178351	3045991.126926411162	9.301128859592
0	178358	3046031.652728193408	40.525801782246
0	178369	3046069.510753244078	37.85802505067
0	178374	3046078.143373216713	8.632619972635
0	178379	3046100.679418175838	22.536044959125
0	178384	3046162.724216106386	62.044797930548
0	178393	3046244.646814204063	81.922598097677
0	178459	3047955.843401695581	37.344209756581
0	178464	3047983.414894146865	27.571492451284
0	178469	3047994.846782467194	11.431888320329
0	178476	3048019.566815797504	24.72003333031
0	178481	3048021.528590489734	1.96177469223
0	178486	3048023.428308901832	1.899718412098
0	178491	3048025.283562389623	1.855253487791
0	178496	3048041.097108971873	15.81354658225
0	178501	3048050.790925075568	9.693816103695
0	178510	3048067.487196272159	16.696271196591
0	178515	3048088.496313007239	21.00911673508
0	178522	3048178.618171509491	51.086088615683
0	178529	3048404.677053272593	2.087698484165
0	178536	3048444.030321597398	7.802234682539
0	178543	3048546.00138785642	12.030943951919
0	178550	3048591.541976312181	33.75011281121
0	178557	3048745.101557680175	0.438313315551
0	178564	3049192.137962679968	5.938434424993
0	178571	3049448.960386069374	5.11620916779
0	178578	3049524.755723948401	8.363254480199
0	178585	3049938.296542198933	24.101486382246
0	178592	3050009.435236147457	8.73404954103
0	178599	3050277.180382071685	36.880374119678
0	178606	3050611.370687953863	34.93934959503
0	178613	3050779.742575268317	24.503616174745
0	178624	3050894.692340362401	106.98400136931
0	178629	3050928.017374082063	33.325033719662
0	178634	3050961.323756535177	33.306382453114
0	178643	3051008.552118138638	41.575076782974
0	178648	3051045.415321582819	36.863203444181
0	178655	3051215.10046480296	25.622385467254
0	178662	3051257.790150919992	13.141401306895
0	178671	3051406.044845371804	80.772338676977
0	178676	3051545.602071529582	139.55722615778
0	178683	3051738.751291405824	40.389693408993
0	178690	3051809.167884038618	17.913661100268
0	178697	3051875.033219248957	32.090672980513
0	178710	3051971.871832801656	33.692405210068
0	178715	3052006.884807819773	35.012975018117
0	178720	3052046.855159849797	39.970352030024
0	178729	3052200.329157438654	153.47399758886
0	178734	3052229.543736772317	29.214579333663
0	178741	3052248.737399356556	19.193662584239
0	178746	3052249.910713522989	1.173314166433
0	178753	3052498.300834959869	13.341623920093
0	178760	3052526.688051772669	5.061758382968
0	178767	3052671.090128358058	98.496829653959
0	178774	3052873.385160509613	11.333764466742
0	178783	3053041.633510772525	84.881700514365
0	178792	3053124.135847729898	82.502336957373
0	178797	3053130.501856016706	6.366008286808
0	178802	3053196.63835348388	66.136497467174
0	178829	3054444.860428382902	53.22075392889
0	178838	3054492.993156636527	48.132728253625
0	178843	3054539.972750368485	46.979593731958
0	178848	3054543.57625195232	3.603501583835
0	178853	3054555.261398889151	11.685146936831
0	178860	3054558.03431478925	2.772915900099
0	178869	3054703.307857438148	145.2735426489
0	178878	3054821.395499678803	118.08764224066
0	178883	3054851.370668627039	29.975168948236
0	178890	3054936.989278137923	85.618609510884
0	178895	3054939.568362294489	2.579084156566
0	178902	3055131.822272049336	72.655386909094
0	178925	3055713.28407153412	1.548643762314
0	178932	3055780.235921586317	66.951850052197
0	178937	3055804.781706692535	24.545785106218
0	178942	3055830.194828371428	25.413121678893
0	178951	3055950.717158334357	26.44881324578
0	178956	3055951.887426573066	1.170268238709
0	178967	3056031.84403717208	5.922341505777
0	178974	3056080.130135917935	38.111919604529
0	178981	3056134.59857373589	37.923709961858
0	178988	3056216.524627385552	60.298498350351
0	178997	3056345.608199380496	25.802308459188
0	179002	3056459.867046994477	114.25884761398
0	179009	3056513.477069486388	2.307180003751
0	179016	3056815.519332484617	26.860698441594
0	179025	3057006.944033515295	10.448420435598
0	179032	3057052.426689862271	17.254608929878
0	179039	3057451.666374030247	8.216002678518
0	179046	3057623.240517664315	17.108948683445
0	179053	3057709.508782641619	29.591804066472
0	179062	3057891.544290624201	75.296674527914
0	179067	3057918.367835897921	26.82354527372
0	179074	3058008.126876429249	29.902234538857
0	179081	3058060.889238889765	47.448473292745
0	179088	3058103.393656943396	16.238885214155
0	179095	3058177.26597479506	15.116966948991
0	179104	3058312.951389597738	126.69814480453
0	179109	3058374.684832674103	61.733443076365
0	179116	3058672.277649338379	37.946842970829
0	179123	3058853.502460179343	34.447399300812
0	179130	3058914.920670625011	10.374844541221
0	179141	3059120.027471316819	19.101646320039
0	179271	3061907.700998524693	93.075762503373
0	179276	3061926.915738854123	19.21474032943
0	179281	3061948.940023493388	22.024284639265
0	179286	3061949.182946150465	0.242922657077
0	179291	3061966.459632940574	17.276686790109
0	179296	3061983.228462294219	16.768829353645
0	179305	3062092.459055488836	109.23059319462
0	179310	3062102.453202766116	9.99414727728
0	179317	3062197.321043359001	94.867840592885
0	179322	3062219.399606095773	22.078562736772
0	179329	3062250.358599183065	30.958993087292
0	179334	3062272.739654644517	22.381055461452
0	179339	3062302.636386857452	29.896732212935
0	179344	3062342.974016235668	40.337629378216
0	179349	3062396.789368740534	53.815352504866
0	179354	3062399.538688227158	2.749319486624
0	179359	3062405.289007754476	5.750319527318
0	179364	3062429.429294787253	24.140287032777
0	179369	3062446.994568176539	17.565273389286
0	179374	3062450.562521192168	3.567953015629
0	179379	3062452.10520395864	1.542682766472
0	179467	3065825.199228191862	86.438597761796
0	179472	3065860.498443058381	35.299214866519
0	179477	3065870.941092934892	10.442649876511
0	179482	3065900.386174222726	29.445081287834
0	179487	3065920.595060445186	20.20888622246
0	179492	3065926.024463003543	5.429402558357
0	179497	3065936.513305763412	10.488842759869
0	179502	3065943.365816686392	6.85251092298
0	179507	3066001.826421526006	58.460604839614
0	179512	3066007.95495757419	6.128536048184
0	179517	3066104.935899774074	96.980942199884
0	179522	3066110.009940946691	5.074041172617
0	179527	3066150.849207052248	40.839266105557
0	179530	3066151.775059422235	0.925852369987
0	179539	3066216.858749283686	65.083689861451
0	179544	3066239.126262651312	22.267513367626
0	179549	3066282.323486829883	43.197224178571
0	179556	3066347.582644553572	65.259157723689
0	179561	3066361.873307274398	14.290662720826
0	179568	3066485.429671899251	23.325344205573
0	179575	3066791.419018123808	5.447187495933
0	179584	3066833.128494021666	3.487740720949
0	179591	3066848.227791960552	15.099297938886
0	179596	3066910.585838144041	62.358046183489
0	179603	3067114.330101735942	82.785181433932
0	179610	3067379.528196610023	2.890890813325
0	179617	3067493.528593890058	19.828379257391
0	179626	3067872.793487838661	203.55736173878
0	179631	3067881.045942661369	8.252454822708
0	179638	3067934.475951356645	4.854913687648
0	179647	3068071.595087936499	116.81538005743
0	179656	3068154.193181581379	82.59809364488
0	179663	3068201.417481342075	47.224299760696
0	179670	3068224.808761067497	23.391279725422
0	179675	3068288.52701046181	63.718249394313
0	179680	3068297.770148977344	9.243138515534
0	179687	3068535.513004540569	1.180135969056
0	179694	3068619.928218944828	29.865253750224
0	179703	3068762.198504641232	18.960468011954
0	179708	3068836.316551906095	74.118047264863
0	179715	3068992.93255050556	10.917494050447
0	179722	3069044.692203757391	27.810081181453
0	179729	3069067.357554414703	13.311040531349
0	179736	3069342.525051612965	0.783694604777
0	179745	3069478.256294328851	17.924965160969
0	179754	3069517.505516369308	39.249222040457
0	179759	3069527.529554599653	10.024038230345
0	179764	3069565.052498865472	37.522944265819
0	179802	3070217.936007458636	12.466540013819
0	179807	3070279.348495557354	61.412488098718
0	179812	3070298.520597192455	19.172101635101
0	179817	3070316.003459191992	17.482861999537
0	179826	3070371.233093849575	55.229634657583
0	179831	3070374.158893403854	2.925799554279
0	179836	3070378.580726428261	4.421833024407
0	179841	3070399.279249288278	20.698522860017
0	179846	3070450.078617180198	50.79936789192
0	179859	3070677.162485039402	123.77115737606
0	179864	3070696.766098713659	19.603613674257
0	179873	3071080.667292194989	38.328997883731
0	179878	3071090.188566261475	9.521274066486
0	179885	3071129.94872021708	14.869990113281
0	179892	3071226.667409789168	15.930224592164
0	179899	3071237.278662911886	4.735909243387
0	179906	3071399.400092164298	55.214125811649
0	179913	3071432.285362796151	21.322502925532
0	179920	3071602.479507342032	13.504221454434
0	179927	3071734.892797127545	3.614766874449
0	179936	3071968.449692148568	82.155947027173
0	179941	3071970.718091771281	2.268399622713
0	179948	3072256.452244442544	104.59579031387
0	179959	3072362.485160622589	89.901214413299
0	179964	3072367.608177482733	5.123016860144
0	179969	3072482.384868966231	114.7766914835
0	179980	3073205.506091265176	72.811979593839
0	179985	3073217.29447119107	11.788379925894
0	179992	3073307.753744604206	69.4076996253
0	179999	3073431.277874798911	68.132307847908
0	180006	3073586.432200830892	52.814588066197
0	180013	3073779.833843661424	68.349706615042
0	180020	3073956.696191985125	8.340222045926
0	180027	3074064.504877855187	4.822594835899
0	180034	3074179.136584408996	70.823554576191
0	180041	3074305.134443163863	77.848268700817
0	180048	3074494.752501548845	4.866295817613
0	180055	3074601.589770390251	24.782114604806
0	180062	3074823.11334328488	42.866286644987
0	180069	3074982.234330646879	74.42549706676
0	180076	3075204.119672391338	20.435804542185
0	180083	3075629.078555835547	103.10918745387
0	180092	3075865.642085278061	210.46109776755
0	180097	3075907.85571486786	42.213629589799
0	180104	3075931.919659427095	20.129064857009
0	180111	3076022.042958862335	5.6760711183
0	180120	3076219.886599312223	46.100472969395
0	180123	3076219.973017323103	0.08641801088
0	180134	3076273.827038593093	37.146351871996
0	180141	3076339.878874176056	66.051835582963
0	180146	3076350.349238697424	10.470364521368
0	180153	3076612.377008962737	32.395263230558
0	180164	3076747.127272158547	57.26958214276
0	180171	3076770.128787444835	23.001515286288
0	180178	3076823.498205753205	53.36941830837
0	180183	3076908.265160653823	84.766954900618
0	180188	3076922.317510128146	14.052349474323
0	180197	3077238.700216235624	37.963074622424
0	180202	3077255.041672711147	16.341456475523
0	180209	3077294.211420129394	12.660644975198
0	180216	3077334.973516388437	10.301586274456
0	180224	3077468.464405007322	44.482777749907
0	180239	3077836.586949335838	6.654936660358
0	180246	3077851.070217964215	14.483268628377
0	180251	3077854.983361235785	3.91314327157
0	180256	3077859.453720718771	4.470359482986
0	180269	3078038.277553071566	17.827420431638
0	180274	3078081.515724675726	43.23817160416
0	180281	3078262.153048090474	21.821029515353
0	180290	3078459.265803451308	155.22082823671
0	180295	3078464.422875559426	5.157072108118
0	180302	3078528.355003137263	9.953890987644
0	180309	3078618.532940829736	5.668808256461
0	180316	3078645.95214869975	15.651465396123
0	180339	3079085.482973643305	49.464673606345
0	180344	3079111.490284573995	26.00731093069
0	180349	3079148.860337726924	37.370053152929
0	180358	3079214.519229962992	30.897033520562
0	180363	3079237.036183990842	22.51695402785
0	180376	3079557.622892178863	183.22057561934
0	180385	3079688.863451125019	131.24055894616
0	180400	3079921.376509668685	232.51305854367
0	180405	3079972.892869424147	51.516359755462
0	180410	3079984.340684775708	11.447815351561
0	180415	3079999.395793013246	15.055108237538
0	180420	3080021.655822558196	22.26002954495
0	180427	3080218.548209057762	196.89238649957
0	180432	3080230.992739879438	12.444530821676
0	180437	3080234.585608518603	3.592868639165
0	180444	3080617.14258842498	0.459545594992
0	180451	3080791.886546661381	26.100051029976
0	180458	3080898.568386558015	64.6133679726
0	180465	3081124.28462140707	87.644302342913
0	180474	3081564.481894118078	27.851970680642
0	180479	3081601.021688045197	36.539793927119
0	180488	3081922.707761628539	34.537391019553
0	180493	3081941.214177416076	18.506415787537
0	180500	3082290.070685975102	29.043435221053
0	180507	3082382.07163734442	26.307309778557
0	180516	3082571.304974914148	78.423344168723
0	180525	3082646.684105786044	75.379130871896
0	180534	3082723.108331193003	76.424225406959
0	180541	3082757.754051836961	34.645720643958
0	180546	3082764.270609291938	6.516557454977
0	180551	3082794.157625311255	29.887016019317
0	180556	3082807.943723087883	13.786097776628
0	180563	3082891.411739144425	14.109089210336
0	180570	3083088.820944196847	3.287399200598