version 2
run Simulations-52-20191218-11:09:22-65753
attr configname Simulations
attr datetime 20191218-11:09:22
attr experiment Simulations
attr inifile omnetpp.ini
attr iterationvars "$seed=65, $0=1980"
attr iterationvarsf seed=65,1980-
attr measurement "$seed=65, $0=1980"
attr network WifiCelNetPassiveQueue
attr processid 65753
attr repetition 0
attr replication #0
attr resultdir results/Simulations/omnet
attr runnumber 52
attr seedset 65
itervar seed 65
param **.numJobs 10000
param *.OFFLOAD.deadline exponential(1980s)
param *.source.interArrivalTime exponential(120s)
param *.WIFI.serviceTime exponential(40s)
param *.CELL.serviceTime exponential(400s)
param *.OFFLOAD.switchToWi exponential(1524s)
param *.OFFLOAD.switchToCel exponential(3120s)
param *.LOCAL.serviceTime exponential(5s)
param *.REMOTE.serviceTime exponential(1s)

vector 0 WifiCelNetPassiveQueue.WIFI serviceTime:vector ETV
attr interpolationmode none
attr title "wifi Service, vector"
attr unit s
vector 1 WifiCelNetPassiveQueue.WIFI responseTime:vector ETV
attr interpolationmode none
attr title "Response Time, vector"
attr unit s
vector 2 WifiCelNetPassiveQueue.REMOTE serviceTime:vector ETV
attr interpolationmode none
attr title "wifi Service, vector"
attr unit s
vector 3 WifiCelNetPassiveQueue.REMOTE responseTime:vector ETV
attr interpolationmode none
attr title "Response Time, vector"
attr unit s
vector 4 WifiCelNetPassiveQueue.sink lifeTime:vector ETV
attr interpolationmode none
attr title "lifetime of arrived jobs, vector"
attr unit s
vector 5 WifiCelNetPassiveQueue.OFFLOAD queueLength:vector ETV
attr interpolationmode sample-hold
attr title "queue length, vector"
vector 6 WifiCelNetPassiveQueue.REMOTE queueLength:vector ETV
attr interpolationmode sample-hold
attr title "queue length, vector"
vector 7 WifiCelNetPassiveQueue.OFFLOAD storeCelTime:vector ETV
attr interpolationmode none
attr title "Time in Cell, vector"
attr unit s
vector 8 WifiCelNetPassiveQueue.OFFLOAD storeDeadline:vector ETV
attr interpolationmode none
attr title "deadline, vector"
attr unit s
vector 9 WifiCelNetPassiveQueue.OFFLOAD storeWifiTime:vector ETV
attr interpolationmode none
attr title "Time in Wifi, vector"
attr unit s
vector 10 WifiCelNetPassiveQueue.CELL serviceTime:vector ETV
attr interpolationmode none
attr title "wifi Service, vector"
attr unit s
vector 11 WifiCelNetPassiveQueue.CELL responseTime:vector ETV
attr interpolationmode none
attr title "Response Time, vector"
attr unit s
vector 12 WifiCelNetPassiveQueue.LOCAL serviceTime:vector ETV
attr interpolationmode none
attr title "wifi Service, vector"
attr unit s
vector 13 WifiCelNetPassiveQueue.LOCAL responseTime:vector ETV
attr interpolationmode none
attr title "Response Time, vector"
attr unit s
vector 14 WifiCelNetPassiveQueue.LOCAL queueLength:vector ETV
attr interpolationmode sample-hold
attr title "queue length, vector"
0	174740	3000283.772485740514	17.299535910508
0	174749	3000607.419363307269	49.954304355848
0	174754	3000625.580295949857	18.160932642588
0	174761	3000727.953094510811	9.398932338611
0	174768	3000804.675448571925	37.843850907792
0	174775	3000856.980608427648	12.943949231773
0	174782	3001176.496543214295	33.852285418619
0	174793	3001422.128302661255	168.97707921804
0	174800	3001552.26754933197	130.13924667072
0	174805	3001567.431108130206	15.163558798236
0	174810	3001583.41819172249	15.987083592284
0	174817	3001741.69547073791	42.343680928642
0	174824	3001943.419584389489	45.442606907036
0	174831	3002022.957426845288	4.280096406193
0	174838	3002157.811098061907	16.661192918506
0	174845	3002639.99429585311	8.120727198728
0	174852	3002739.692872492004	35.54761142657
0	174859	3003115.323273887284	28.70416814925
0	174866	3003315.298642536129	39.726671016666
0	174875	3003407.229496554888	56.138393338848
0	174878	3003407.523433490549	0.293936935661
0	174887	3003495.091986452416	9.384636719984
0	174894	3003561.619390712741	27.002336476936
0	174901	3003615.65277908763	6.480108488617
0	174908	3003930.820933083778	46.817274116379
0	174917	3004204.453216266226	135.97110265408
0	174920	3004206.673361843229	2.220145577003
0	174929	3004238.140399118997	1.035138085576
0	174936	3004319.017625099862	46.05715199633
0	174943	3004346.907868402224	23.684679877455
0	174950	3004635.951558840657	2.315436805215
0	174957	3004751.617992563177	76.076301350714
0	174964	3005121.825883016276	8.930551386445
0	174971	3005185.108680077135	4.330800127154
0	174978	3005292.28034679893	20.469221957543
0	174985	3005335.826151668265	18.938899503858
0	174992	3005341.904953594665	5.029973498559
0	174999	3005378.348396211173	22.954550370513
0	175006	3005595.509759110282	9.584886039115
0	175013	3005707.154466356304	44.678264823921
0	175020	3005925.199897167835	63.553842552614
0	175027	3005940.302781003369	5.287110319701
0	175036	3006279.620767424133	52.596040538831
0	175041	3006298.815462618392	19.194695194259
0	175048	3006335.94645832501	5.86123952541
0	175055	3006341.018545795234	1.393038937815
0	175062	3006460.986137407447	15.952654855809
0	175071	3006667.132836718978	5.856761809576
0	175076	3006672.453232991858	5.32039627288
0	175083	3006986.857809495128	105.70486750083
0	175092	3007269.695626699474	67.965490719146
0	175097	3007275.040092647853	5.344465948379
0	175104	3007559.714605632262	58.796549873534
0	175111	3007971.339160569556	13.61903525321
0	175118	3008028.889825755811	46.540562828777
0	175125	3008093.121523003309	8.503531401339
0	175132	3008198.606662590465	0.308230388487
0	175139	3008230.565101775628	31.209503030879
0	175155	3009177.695612463735	5.774864853096
0	175160	3009243.437345711766	65.741733248031
0	175165	3009261.401880888856	17.96453517709
0	175172	3009362.123280017154	41.183573861248
0	175183	3009517.590551354996	13.127667667301
0	175190	3009762.80258203126	110.02417634727
0	175197	3010041.454627570044	10.25266201595
0	175204	3010103.953910349043	4.236956726287
0	175211	3010450.414489681791	38.824602880457
0	175218	3010496.080118595817	25.135265048825
0	175227	3010591.47915230929	77.294850677709
0	175232	3010595.350333278812	3.871180969522
0	175239	3010635.944439100617	6.839238442061
0	175246	3010657.183799426769	19.193248738095
0	175253	3010780.883988551089	28.088119678685
0	175260	3010805.858108043032	10.569379853499
0	175283	3011708.954794020531	62.384673433147
0	175290	3011830.86908375897	32.491941217827
0	175299	3012179.552566704269	81.532467388311
0	175304	3012185.83797527899	6.285408574721
0	175311	3012317.975271243795	27.735527069621
0	175318	3012761.913643263029	13.590822034011
0	175327	3013022.311280339868	182.32693407077
0	175332	3013032.264263640595	9.952983300727
0	175339	3013163.221561211147	26.586501691836
0	175438	3016101.324597889662	46.629681056895
0	175444	3016125.236060197767	23.911462308105
0	175449	3016163.445998968593	38.209938770826
0	175454	3016216.928008908268	53.482009939675
0	175459	3016229.270249540442	12.342240632174
0	175464	3016252.625693519123	23.355443978681
0	175469	3016256.607760344412	3.982066825289
0	175474	3016305.633794907967	49.026034563555
0	175483	3016448.107567182896	142.47377227493
0	175488	3016459.33240305118	11.224835868284
0	175493	3016475.245790054111	15.913387002931
0	175500	3016519.506508277032	44.260718222921
0	175505	3016586.65776853945	67.151260262418
0	175514	3017058.679589114981	73.043218753402
0	175523	3017171.768732498765	113.08914338378
0	175528	3017184.787081988925	13.01834949016
0	175535	3017228.838901833302	44.051819844377
0	175540	3017234.687211193959	5.848309360657
0	175547	3017507.287991374891	27.712287233178
0	175556	3017695.485039064223	105.58384439195
0	175561	3017721.462254864012	25.977215799789
0	175570	3018269.9642107994	83.161899866029
0	175575	3018336.375126034601	66.410915235201
0	175582	3018550.069975512714	13.219678472362
0	175591	3018974.177177130514	110.56645423165
0	175596	3018999.152831081063	24.975653950549
0	175603	3019109.753685023971	15.98442922924
0	175612	3019516.948777855694	93.267336471342
0	175617	3019526.427338280202	9.478560424508
0	175624	3019550.737353666327	12.705541527075
0	175631	3019594.847071485697	1.843725387048
0	175638	3019669.991769540011	13.619856304919
0	175645	3019832.159643431882	4.234682006432
0	175652	3019857.925832709466	18.112075867571
0	175659	3019938.559364720946	25.83679782087
0	175666	3019971.483575740055	7.760906775243
0	175673	3020028.225536379306	32.390635864181
0	175682	3020087.842849305105	7.886208668839
0	175687	3020090.602463082285	2.75961377718
0	175696	3020159.099377983946	17.079276369888
0	175701	3020195.0083231582	35.908945174254
0	175708	3020313.701373860055	35.789488140717
0	175715	3020422.757026727801	39.158401246585
0	175722	3020564.527532965488	55.848479081469
0	175729	3020720.136757564691	126.03269441133
0	175736	3020958.644985379487	30.196863718131
0	175743	3021063.675757722424	88.22483014639
0	175752	3021295.326045667889	12.349953492033
0	175757	3021359.756158303208	64.430112635319
0	175764	3021950.046337685432	8.812219716162
0	175771	3022025.10656397721	43.530636360839
0	175778	3022161.117209567384	10.745027352826
0	175785	3022380.922019724391	63.531654917162
0	175792	3022472.340767144844	52.080597359264
0	175799	3022684.401562255967	71.313199184241
0	175806	3022895.068364182004	88.274341899127
0	175813	3022945.104066616871	28.607724462976
0	175822	3023156.823358719168	13.282181611868
0	175827	3023232.789119050214	75.965760331046
0	175834	3023398.143831514479	52.332705965035
0	175841	3023403.459952888213	3.047008197076
0	175848	3023527.413664777472	85.323316977143
0	175855	3023733.445585826798	63.117096977299
0	175862	3023864.614100319098	31.269313527069
0	175896	3024943.988136396291	62.175006790656
0	175907	3024979.265529414372	35.277393018081
0	175912	3025008.033424471139	28.767895056767
0	175919	3025107.538535087171	99.505110616032
0	175926	3025157.498557359824	49.960022272653
0	175931	3025175.388960418504	17.89040305868
0	175936	3025240.366389263361	64.977428844857
0	175941	3025264.502549717525	24.136160454164
0	175948	3025560.193099480154	44.192500324665
0	175955	3025722.831154224262	59.94095266629
0	175962	3025835.226539327402	6.017318788543
0	175969	3025947.558979351704	21.309391363305
0	175976	3025990.95261587737	6.872656567896
0	175983	3026046.734019637473	4.395305226074
0	175992	3026442.301014728951	57.412836003027
0	175997	3026509.696305294148	67.395290565197
0	176004	3026597.983201840655	49.934953345261
0	176013	3027434.401047889116	91.206490993498
0	176018	3027444.457381068966	10.05633317985
0	176025	3027779.523826657318	190.69334532107
0	176032	3028125.554471505685	61.187196754489
0	176039	3028207.58840676389	8.009034460917
0	176048	3028689.280328517013	60.449351566321
0	176053	3028712.047209936971	22.766881419958
0	176060	3028896.604052311259	19.256193482098
0	176067	3028931.511283173717	4.983330424056
0	176074	3029046.266547660819	21.221576782801
0	176081	3029118.915573926544	28.494046072101
0	176090	3029482.732333521535	65.086945544977
0	176095	3029492.656373663784	9.924040142249
0	176102	3029582.992102975832	19.159615743613
0	176109	3029645.925765905617	3.058584224404
0	176116	3029726.441562794941	13.33670392905
0	176125	3030050.765033600903	59.522521872265
0	176130	3030119.398278729133	68.63324512823
0	176137	3030181.343598205933	6.381569270868
0	176144	3030338.416659508018	30.462577983006
0	176153	3030659.887797482727	58.999906479779
0	176160	3030777.093908660456	117.20611117773
0	176167	3030827.00940678741	49.915498126954
0	176172	3030862.228282225365	35.218875437955
0	176179	3031073.223087366431	21.849108746813
0	176188	3031347.402413252444	24.063408634624
0	176193	3031379.631532308739	32.229119056295
0	176420	3036922.822519250969	26.806380674592
0	176427	3036992.119486727783	69.296967476814
0	176436	3037108.002867999117	115.88338127133
0	176445	3037150.505580023996	42.502712024879
0	176454	3037187.808033146013	37.302453122017
0	176459	3037250.0541690852	62.246135939187
0	176462	3037250.229475201562	0.175306116362
0	176469	3037261.697570372373	11.468095170811
0	176476	3037291.658024817621	29.960454445248
0	176483	3037349.934688459431	58.27666364181
0	176490	3037420.122381298758	70.187692839327
0	176497	3037450.90826980224	30.785888503482
0	176502	3037457.351807515887	6.443537713647
0	176507	3037467.722918257883	10.371110741996
0	176512	3037475.474850840475	7.751932582592
0	176517	3037482.482397155758	7.007546315283
0	176524	3037601.366405321124	87.756813510289
0	176531	3037716.21075839014	13.324328097129
0	176538	3037811.970932900525	53.315019227555
0	176547	3037956.489074895901	59.427082934483
0	176552	3037984.972438180392	28.483363284491
0	176559	3037998.207682922848	5.51213715943
0	176566	3038022.019161213911	8.499279462437
0	176573	3038048.964250975377	8.723335743997
0	176580	3038159.277803339794	76.203423172788
0	176587	3038295.773101609007	77.706130927168
0	176594	3038367.293790339861	37.614703193316
0	176601	3038490.042976612776	14.22132957547
0	176608	3038702.031302475842	33.270675053763
0	176615	3038740.744823346668	1.852862979055
0	176624	3038983.235841630668	45.860191266302
0	176629	3038997.051708965009	13.815867334341
0	176636	3039028.847439706225	1.36680831513
0	176645	3039200.295601523897	105.35646129715
0	176650	3039292.716141910638	92.420540386741
0	176657	3039318.863102941572	6.882002605481
0	176666	3039568.138092048231	26.693511025354
0	176671	3039580.390605759566	12.252513711335
0	176678	3039819.91951259978	20.277362456305
0	176685	3039866.74546330189	45.147882328078
0	176692	3039916.394264960176	17.975755678765
0	176699	3040174.339184361224	56.125265164286
0	176706	3040269.835810907602	70.670466338833
0	176713	3040331.093923729062	21.543835449481
0	176720	3040663.096306759673	41.993667846721
0	176727	3040739.104822736672	51.620996287875
0	176738	3040957.878121023447	73.991160184844
0	176743	3040977.998404840541	20.120283817094
0	176750	3040988.922980668056	10.924575827515
0	176755	3041005.408144217284	16.485163549228
0	176762	3041062.915195862726	25.686736665181
0	176769	3041346.8289697967	34.821146380116
0	176776	3041367.562236057906	1.900095536077
0	176785	3041760.858477294222	111.49528299225
0	176792	3041820.187000269337	59.328522975115
0	176797	3041839.605435429789	19.418435160452
0	176806	3042074.465524675542	152.28071392164
0	176811	3042092.806534945879	18.341010270337
0	176818	3042191.331201781904	23.589260731599
0	176825	3042576.200124251163	3.152290467978
0	176832	3042692.531544876798	69.992948949591
0	176839	3042802.391962867905	35.89167770149
0	176846	3042931.206204438159	7.066350495739
0	176853	3042984.528824367666	9.708454816186
0	176860	3043035.851482455465	10.046248482104
0	176867	3043111.556626054221	29.82357513064
0	176874	3043200.211637580767	88.138357392957
0	176881	3043402.696995855196	27.916287946551
0	176890	3043622.353315861267	122.10532698761
0	176895	3043753.664121875067	131.3108060138
0	176902	3043836.731227319644	1.161844801567
0	176911	3043932.253578791124	61.915246553585
0	176918	3043937.468057783712	5.214478992588
0	176925	3043967.947987065844	30.479929282132
0	176930	3043984.63362354565	16.685636479806
0	176937	3044111.101246918738	0.173139430689
0	176944	3044338.562241225511	3.152936108376
0	176951	3044422.10617514512	27.994990461261
0	176958	3044560.28504968626	92.19872142459
0	176965	3044569.610626168244	2.232792035733
0	176972	3044598.324270714247	13.251564963826
0	176979	3044631.447834933887	32.970037562273
0	176988	3044856.624895486972	9.143109725608
0	176993	3044917.426648578045	60.801753091073
0	177000	3045004.302681415799	10.119946599129
0	177074	3046604.069788088223	35.248508503753
0	177079	3046645.197509678828	41.127721590605
0	177086	3046652.430525366448	7.23301568762
0	177091	3046736.364995086757	83.934469720309
0	177096	3046757.310364085873	20.945368999116
0	177103	3046764.389994681941	7.079630596068
0	177108	3046765.630970235656	1.240975553715
0	177119	3046857.661226219322	83.750795185561
0	177130	3047153.263167327051	95.189312229301
0	177135	3047159.912046928079	6.648879601028
0	177140	3047162.049321721248	2.137274793169
0	177147	3047205.246580588685	41.839416321461
0	177154	3047617.942275203069	14.786277716102
0	177161	3047720.186104736734	43.354645985823
0	177168	3048070.41820801895	55.292525058276
0	177177	3048194.385034520909	41.201636314168
0	177182	3048204.746753884826	10.361719363917
0	177189	3048307.737638239305	37.764295856303
0	177196	3048383.441159984245	39.262576944729
0	177205	3048416.160632023533	25.523879597676
0	177210	3048431.574872728703	15.41424070517
0	177217	3048663.654923014706	79.802310984033
0	177224	3048721.0625477001	14.894173441922
0	177231	3048745.527253927911	8.007992737319
0	177238	3048811.380145696916	41.993266041707
0	177245	3049074.000311376229	2.165173704381
0	177256	3049293.192763227881	87.185782023035
0	177261	3049369.134783098807	75.942019870926
0	177266	3049387.488727743774	18.353944644967
0	177273	3049689.445969306315	52.053500913923
0	177280	3049861.841278838513	40.02505786755
0	177287	3050072.437977917107	39.259750104302
0	177294	3050115.04985624345	18.193022417213
0	177301	3050233.05733529627	48.787594035867
0	177309	3050376.006132377246	65.494257962208
0	177398	3053355.102100808109	30.278677790596
0	177403	3053356.962349595868	1.860248787759
0	177410	3053440.606018992189	83.643669396321
0	177415	3053457.488131693619	16.88211270143
0	177420	3053489.68396013595	32.195828442331
0	177425	3053501.380410593221	11.696450457271
0	177430	3053536.817235289255	35.436824696034
0	177437	3053611.449005311539	49.423003878075
0	177450	3053771.021289201029	27.561466417068
0	177455	3053791.757108192523	20.735818991494
0	177462	3053954.032379813437	2.495225773752
0	177469	3053992.384180378062	26.595780165201
0	177476	3054276.24411631665	38.755113908899
0	177485	3054315.025789336703	19.079653560369
0	177490	3054347.781908775681	32.756119438978
0	177497	3054400.897668325172	7.240026800342
0	177504	3054599.350208539388	72.354777268681
0	177513	3054746.005787390442	79.619306423218
0	177518	3054748.266702983811	2.260915593369
0	177579	3056806.180846735023	48.857620601638
0	177588	3056857.432451325049	51.251604590026
0	177593	3056885.012936224973	27.580484899924
0	177600	3057051.322798714141	166.30986248917
0	177612	3057141.397846880979	90.075048166838
0	177763	3060291.801263386589	14.47544730541
0	177768	3060394.034573970994	102.23331058441
0	177773	3060449.235595963256	55.201021992262
0	177778	3060457.308728672823	8.073132709567
0	177783	3060459.442958995659	2.134230322836
0	177788	3060481.969600523154	22.526641527495
0	177793	3060486.331169701693	4.361569178539
0	177798	3060532.881164078408	46.549994376715
0	177804	3060550.624235085935	17.743071007527
0	177880	3062647.019513470832	45.900985673055
0	177885	3062650.951137436141	3.931623965309
0	177896	3062686.024602474886	5.192572444743
0	177903	3062771.686333190778	4.689746721606
0	177910	3062854.704420943207	29.067273395368
0	177917	3063056.538641164823	59.884042235781
0	177924	3063123.882715100929	21.192051815051
0	177933	3063395.320091792104	32.495656678114
0	177940	3063450.045867163301	54.725775371197
0	177945	3063470.996183501745	20.950316338444
0	177958	3063804.592678988115	150.71880081218
0	177969	3063949.748533226449	145.15585423833
0	177974	3064005.744194314629	55.99566108818
0	177979	3064074.831439997047	69.087245682418
0	177988	3064122.173678439821	47.342238442774
0	177993	3064146.062235066313	23.888556626492
0	178000	3064162.101051351211	16.038816284898
0	178007	3064211.776341893636	49.675290542425
0	178012	3064316.909165314827	105.13282342119
0	178017	3064319.344649441503	2.435484126676
0	178022	3064343.199903737714	23.855254296211
0	178029	3064364.123165909721	14.37956919175
0	178036	3064714.522618837584	1.135528822234
0	178043	3064767.645202824144	41.816743959876
0	178050	3064934.243372921907	37.17305539803
0	178057	3065087.102901088034	7.755461723798
0	178064	3065482.432645699269	32.265218483601
0	178071	3065542.31361505585	35.903109981314
0	178078	3065562.787102298244	6.70875299986
0	178087	3065668.912181015038	22.407210139682
0	178092	3065703.940314081193	35.028133066155
0	178099	3065777.545495543578	71.886954700299
0	178106	3065819.76930915058	21.470349493924
0	178113	3065929.785705819942	34.455167985625
0	178124	3066056.543396021212	89.409798097824
0	178129	3066060.069701362171	3.526305340959
0	178134	3066062.688298995075	2.618597632904
0	178141	3066125.258089959267	28.550211741033
0	178148	3066273.166976991562	9.581308799091
0	178155	3066338.925876914745	10.854937118832
0	178163	3066418.478517873162	72.351432385677
0	178176	3067053.93022894678	35.730387967528
0	178181	3067093.023415873914	39.093186927134
0	178188	3067096.039036050617	1.140563628302
0	178197	3067204.503883742923	69.056890043855
0	178204	3067248.329483068591	43.825599325668
0	178209	3067283.272071028681	34.94258796009
0	178216	3067381.597120123487	3.154582991542
0	178223	3067451.408926678119	35.808706943617
0	178230	3067503.526124411693	14.378661298566
0	178243	3067652.489672260934	124.79011609281
0	178250	3067686.228604551709	33.738932290775
0	178255	3067689.584323049315	3.355718497606
0	178260	3067700.435329972355	10.85100692304
0	178265	3067708.36085139941	7.925521427055
0	178276	3067862.577378835764	88.679554274832
0	178285	3067944.545478095688	26.588659961305
0	178290	3067974.368199987699	29.822721892011
0	178297	3068099.934488715178	6.696076240472
0	178308	3068308.226432800142	111.39526070977
0	178313	3068311.573906719495	3.347473919353
0	178318	3068363.516262125603	51.942355406108
0	178325	3068566.091157854709	181.52517448131
0	178332	3068602.933452574791	7.654499733371
0	178341	3068717.834249654247	94.030589435702
0	178346	3068743.500202677871	25.665953023624
0	178353	3068807.380346678151	6.54803802687
0	178362	3068918.718255517341	82.875894703802
0	178367	3068939.808977613728	21.090722096387
0	178374	3069403.08553085207	15.028526298182
0	178381	3069546.904230734702	18.340785400758
0	178390	3069754.13567650847	23.385827246847
0	178395	3069792.860646487457	38.724969978987
0	178402	3070043.673675990124	18.663197619874
0	178409	3070114.072979199195	45.306935395441
0	178416	3070428.735375566133	1.468727737539
0	178425	3070729.262253317037	94.884239494981
0	178430	3070787.220894446952	57.958641129915
0	178437	3070832.725207567362	34.945692319792
0	178444	3070988.804460717016	106.98492359126
0	178455	3071353.28405909071	79.646468816624
0	178462	3071421.599333236617	68.315274145907
0	178467	3071500.983595285042	79.384262048425
0	178472	3071515.542420214027	14.558824928985
0	178495	3072520.019988982845	36.644628120769
0	178500	3072586.53085689203	66.510867909185
0	178505	3072624.973248601799	38.442391709769
0	178518	3072849.683839539769	123.36821369227
0	178523	3072877.425564262123	27.741724722354
0	178528	3072878.768681076207	1.343116814084
0	178533	3072894.121439354669	15.352758278462
0	178542	3073171.984467383695	75.013958113186
0	178547	3073184.829001880318	12.844534496623
0	178560	3073611.740697559706	127.0749651649
0	178569	3073678.275367425716	66.53466986601
0	178572	3073678.541787579437	0.266420153721
0	178583	3074048.048194644573	52.824908068282
0	178588	3074110.69873678554	62.650542140967
0	178597	3074291.746101731562	35.461778705935
0	178604	3074337.370299612433	45.624197880871
0	178609	3074370.041605417487	32.671305805054
0	178616	3074645.476986638774	82.694725538126
0	178623	3074705.632133298122	41.801010946284
0	178632	3074817.359938105383	87.76607535554
0	178637	3074843.610031954744	26.250093849361
0	178646	3075024.171458805407	141.4198304305
0	178651	3075060.796145272428	36.624686467021
0	178658	3075103.386036852123	20.487003319549
0	178665	3075326.850981694519	4.702601850473
0	178672	3075476.201099377602	66.961957561667
0	178681	3075594.219922196873	15.178465586715
0	178688	3075626.139876765673	31.9199545688
0	178695	3075676.387719878884	50.247843113211
0	178700	3075739.14988202413	62.762162145246
0	178707	3075842.941575857993	18.495473394111
0	178714	3075978.12721947218	28.113029156049
0	178721	3076187.443591340695	4.815690999923
0	178728	3076212.215412387016	20.123150290654
0	178735	3076233.298586282524	6.937561574685
0	178742	3076457.853011915956	30.154672555985
0	178749	3076809.405317558651	66.680081653859
0	178756	3076921.29674528295	94.599265308673
0	178763	3076959.483124742741	20.506901555986
0	178863	3079499.294671561298	177.30181133237
0	178866	3079499.67889424761	0.384222686312
0	178873	3079513.426462054968	13.747567807358
0	178878	3079518.777871081861	5.351409026893
0	178883	3079555.870384655874	37.092513574013
0	178888	3079607.657605674402	51.787221018528
0	178893	3079624.646455318406	16.988849644004
0	178898	3079643.323599885335	18.677144566929
0	178907	3079705.721676186063	21.385870941251
0	178912	3079764.109140701327	58.387464515264
0	178933	3080199.850537227045	109.3313382638
0	178938	3080216.440601192059	16.590063965014
0	178945	3080374.452571507227	158.01197031517
0	178954	3080451.782594254878	77.330022747651
0	178965	3080727.834558981037	276.05196472616
0	178970	3080742.889012136661	15.054453155624
0	178975	3080775.60024764302	32.711235506359
0	178980	3080824.180614045958	48.580366402938
0	178987	3080851.146251171717	4.947361914445
0	178994	3080866.871059053594	4.443061158045
0	179001	3080891.956739251544	5.435497559574
0	179008	3081067.676240039782	27.206584451944
0	179015	3081153.685214175294	80.289170526337
0	179024	3081293.923078050765	79.552035082419
0	179029	3081389.585129767194	95.662051716429
0	179048	3082019.832913621203	36.196766125732
0	179055	3082142.538581532539	74.844014982824
0	179062	3082437.276009638335	106.51800321021
0	179073	3082805.225101014135	78.224175773835
0	179080	3083130.754045925769	45.247074699403
0	179087	3083201.808829924932	49.108983460801
0	179098	3083348.003613733883	60.30594234837
0	179103	3083416.958928269658	68.955314535775
0	179112	3083498.084653945182	81.125725675524
0	179117	3083527.541366095507	29.456712150325
0	179122	3083541.184938599903	13.643572504396
0	179129	3083845.45546841892	28.0942736274
0	179136	3083865.991125669398	2.972483673019
0	179143	3083971.699096903422	35.55415711358
0	179152	3084022.01280761131	17.663610894786
0	179157	3084025.06127163282	3.04846402151
0	179240	3086109.970450127509	14.534707690477
0	179245	3086111.640066485519	1.66961635801
0	179250	3086118.204534401007	6.564467915488
0	179257	3086167.017324189394	48.812789788387
0	179262	3086174.209074154898	7.191749965504
0	179267	3086259.143949166	84.934875011102
0	179272	3086262.992800219172	3.848851053172
0	179277	3086271.680321584972	8.6875213658
0	179282	3086295.2830513659	23.602729780928
0	179287	3086335.521173947127	40.238122581227
0	179292	3086336.915631571859	1.394457624732
0	179346	3087545.124558000208	47.646859215383
0	179355	3087591.586469188477	46.461911188269
0	179362	3087598.667075209621	7.080606021144
0	179367	3087616.079957689789	17.412882480168
0	179372	3087666.005387510946	49.925429821157
0	179377	3087675.339699557103	9.334312046157
0	179382	3087683.349429501582	8.009729944479
0	179385	3087684.484462633151	1.135033131569
0	179392	3087703.672585021127	19.188122387976
0	179403	3087911.580878869691	207.90829384856
0	179408	3087915.75207777585	4.171198906159
0	179413	3087952.919591425339	37.167513649489
0	179418	3087963.371440717541	10.451849292202
0	179423	3087983.663336771471	20.29189605393
0	179430	3088047.96492223179	49.347996399266
0	179437	3088161.438922751403	112.14556730171
0	179448	3088348.2842200204	145.46392125911
0	179470	3088760.854413804961	25.711854455477
0	179475	3088809.258991234503	48.404577429542
0	179482	3088828.24820772633	6.929978043287
0	179491	3088918.162917879713	76.14983974848
0	179496	3088933.858557429658	15.695639549945
0	179503	3089126.998088353154	47.108476431101
0	179510	3089210.929426638612	16.081942605223
0	179517	3089362.04254649131	42.598784351562
0	179524	3089460.136967147148	5.65585516211
0	179537	3089490.892644226233	22.110786965034
0	179544	3089493.830978777978	2.938334551745
0	179551	3089596.224697630169	102.39371885219
0	179556	3089673.99818499577	77.773487365601
0	179563	3090180.286293082864	34.298089196906
0	179574	3090345.037076881867	40.406946671001
0	179579	3090387.727284475224	42.690207593357
0	179586	3090440.843021938377	53.115737463153
0	179591	3090466.672560925291	25.829538986914
0	179598	3090774.229468401285	12.803283735816
0	179605	3090789.426513025428	6.876329324695
0	179612	3090977.325013688238	53.947120720043
0	179619	3091072.270616917903	22.749884212163
0	179626	3091177.42750534339	33.775365941677
0	179633	3091227.207509775116	2.147396642473
0	179642	3091732.866250720548	16.578028936888
0	179647	3091740.317658401687	7.451407681139
0	179654	3091783.437425395584	32.859391787621
0	179848	3095900.729349299879	19.134535061005
0	179857	3095930.46833385134	29.738984551461
0	179862	3095930.542695826133	0.074361974793
0	179867	3095936.18433037132	5.641634545187
0	179872	3096007.33417756589	71.14984719457
0	179877	3096023.36187248264	16.02769491675
0	179882	3096084.632727564726	61.270855082086
0	179887	3096132.39576435143	47.763036786704
0	179892	3096164.199876421344	31.804112069914
0	179897	3096194.976366350853	30.776489929509
0	179902	3096232.480288446589	37.503922095736
0	179907	3096268.062190482862	35.581902036273
0	179912	3096273.604964469644	5.542773986782
0	179917	3096282.769843197502	9.164878727858
0	179922	3096327.010644249002	44.2408010515
0	179929	3096369.869197899565	32.104814349322
0	179936	3096439.079122222019	34.730347138095
0	179949	3096757.685242359265	49.976774800801
0	179954	3096775.160962640981	17.475720281716
0	179961	3096805.163408644301	18.839486737715
0	179974	3097510.306668100898	138.30682954274
0	179979	3097511.890965987596	1.584297886698
0	179986	3097548.991931478389	37.100965490793
0	179991	3097584.959398288803	35.967466810414
0	180002	3097729.172822689695	144.21342440089
0	180009	3097786.467132582018	57.294309892323
0	180014	3097788.891623701344	2.424491119326
0	180019	3097827.896998802774	39.00537510143
0	180028	3098114.060008654751	286.16300985198
0	180033	3098146.441557687363	32.381549032612
0	180042	3098243.447775122709	97.006217435346
0	180047	3098284.451529719361	41.003754596652