version 2
run Simulations-61-20191218-11:09:23-65753
attr configname Simulations
attr datetime 20191218-11:09:23
attr experiment Simulations
attr inifile omnetpp.ini
attr iterationvars "$seed=65, $0=5700"
attr iterationvarsf seed=65,5700-
attr measurement "$seed=65, $0=5700"
attr network WifiCelNetPassiveQueue
attr processid 65753
attr repetition 0
attr replication #0
attr resultdir results/Simulations/omnet
attr runnumber 61
attr seedset 65
itervar seed 65
param **.numJobs 10000
param *.OFFLOAD.deadline exponential(5700s)
param *.source.interArrivalTime exponential(120s)
param *.WIFI.serviceTime exponential(40s)
param *.CELL.serviceTime exponential(400s)
param *.OFFLOAD.switchToWi exponential(1524s)
param *.OFFLOAD.switchToCel exponential(3120s)
param *.LOCAL.serviceTime exponential(5s)
param *.REMOTE.serviceTime exponential(1s)

vector 0 WifiCelNetPassiveQueue.OFFLOAD queueLength:vector ETV
attr interpolationmode sample-hold
attr title "queue length, vector"
vector 1 WifiCelNetPassiveQueue.WIFI serviceTime:vector ETV
attr interpolationmode none
attr title "wifi Service, vector"
attr unit s
vector 2 WifiCelNetPassiveQueue.WIFI responseTime:vector ETV
attr interpolationmode none
attr title "Response Time, vector"
attr unit s
vector 3 WifiCelNetPassiveQueue.REMOTE serviceTime:vector ETV
attr interpolationmode none
attr title "wifi Service, vector"
attr unit s
vector 4 WifiCelNetPassiveQueue.REMOTE responseTime:vector ETV
attr interpolationmode none
attr title "Response Time, vector"
attr unit s
vector 5 WifiCelNetPassiveQueue.sink lifeTime:vector ETV
attr interpolationmode none
attr title "lifetime of arrived jobs, vector"
attr unit s
vector 6 WifiCelNetPassiveQueue.OFFLOAD storeCelTime:vector ETV
attr interpolationmode none
attr title "Time in Cell, vector"
attr unit s
vector 7 WifiCelNetPassiveQueue.OFFLOAD storeDeadline:vector ETV
attr interpolationmode none
attr title "deadline, vector"
attr unit s
vector 8 WifiCelNetPassiveQueue.CELL serviceTime:vector ETV
attr interpolationmode none
attr title "wifi Service, vector"
attr unit s
vector 9 WifiCelNetPassiveQueue.CELL responseTime:vector ETV
attr interpolationmode none
attr title "Response Time, vector"
attr unit s
vector 10 WifiCelNetPassiveQueue.OFFLOAD storeWifiTime:vector ETV
attr interpolationmode none
attr title "Time in Wifi, vector"
attr unit s
vector 11 WifiCelNetPassiveQueue.REMOTE queueLength:vector ETV
attr interpolationmode sample-hold
attr title "queue length, vector"
vector 12 WifiCelNetPassiveQueue.LOCAL serviceTime:vector ETV
attr interpolationmode none
attr title "wifi Service, vector"
attr unit s
vector 13 WifiCelNetPassiveQueue.LOCAL responseTime:vector ETV
attr interpolationmode none
attr title "Response Time, vector"
attr unit s
vector 14 WifiCelNetPassiveQueue.LOCAL queueLength:vector ETV
attr interpolationmode sample-hold
attr title "queue length, vector"
0	175327	3000011.3029221838	6
0	175328	3000029.790267180744	5
0	175334	3000046.540622701664	6
0	175335	3000098.869080478703	5
0	175340	3000136.130334455121	4
0	175345	3000197.194072701335	3
0	175350	3000274.453774690446	2
0	175355	3000293.903429460434	1
0	175360	3000450.554892326847	0
0	175366	3000471.018355338481	1
0	175367	3000478.875036779068	0
0	175422	3001175.201129120311	1
0	175424	3001271.788614447305	2
0	175426	3001312.35385047223	3
0	175428	3001347.443201844044	4
0	175430	3001383.751271916428	5
0	175431	3001445.058532786752	4
0	175437	3001490.06174600453	5
0	175438	3001505.536473236918	4
0	175443	3001559.431708338684	3
0	175448	3001586.993174755752	2
0	175453	3001608.55053504969	1
0	175459	3001638.330757638755	2
0	175460	3001641.894086022332	1
0	175466	3001652.582003811931	2
0	175467	3001672.224670560227	1
0	175472	3001709.44450464947	0
0	175485	3001942.719069900825	1
0	175486	3001943.36225956719	0
0	175513	3002295.530363216889	1
0	175514	3002374.342257620929	0
0	175528	3002737.847853992413	1
0	175530	3002777.2227939876	2
0	175532	3003079.742843341972	3
0	175534	3003091.2527552703	4
0	175536	3003279.399248179726	5
0	175538	3003384.350410600398	6
0	175539	3003657.569571274267	5
0	175545	3003710.28030202924	6
0	175547	3003763.55655522375	7
0	175548	3003768.095172619865	6
0	175554	3004007.7183061638	7
0	175556	3004180.109672608089	8
0	175558	3004258.622732634181	9
0	175560	3004313.471108207998	10
0	175561	3004348.123624285014	9
0	175564	3004369.572876174514	10
0	175566	3004385.379487310359	11
0	175568	3004415.949835088518	12
0	175570	3004426.344414157409	13
0	175571	3004430.76277196035	12
0	175576	3004446.722905196137	11
0	175583	3004495.580525797775	10
0	175590	3004546.832130387801	9
0	175595	3004574.412615287725	8
0	175601	3004739.352154154815	9
0	175602	3004740.722477776893	8
0	175608	3004809.781445370442	9
0	175609	3004830.797525943731	8
0	175615	3004843.278761341804	9
0	175616	3004913.654492921947	8
0	175621	3004967.476626168515	7
0	175626	3004992.379728427018	6
0	175632	3005027.327473125828	7
0	175633	3005038.169212002849	6
0	175638	3005077.455564117072	5
0	175644	3005079.212060435391	6
0	175646	3005105.82850343689	7
0	175648	3005109.022144303268	8
0	175649	3005153.821687646211	7
0	175654	3005167.708746364161	6
0	175659	3005170.686248667413	5
0	175665	3005213.375195506198	6
0	175666	3005229.382433880959	5
0	175671	3005243.827608575506	4
0	175676	3005273.617915249798	3
0	175681	3005288.922857422026	2
0	175684	3005290.27752394065	1
0	175690	3005293.1405021819	2
0	175693	3005312.450497981399	1
0	175698	3005384.131371804337	0
0	175704	3005396.099314015021	1
0	175706	3005405.128415452959	2
0	175707	3005414.917710150999	1
0	175710	3005418.911924868998	2
0	175716	3005437.386970006842	3
0	175717	3005441.144668659032	2
0	175722	3005500.246920608983	1
0	175728	3005545.840326562341	2
0	175730	3005600.109446997307	3
0	175732	3005678.056675878444	4
0	175734	3005861.00093211753	5
0	175736	3006030.253325759546	6
0	175738	3006137.774108989883	7
0	175739	3006160.870317215333	6
0	175744	3006163.778530414807	7
0	175746	3006186.220677156806	8
0	175747	3006319.898263066067	7
0	175749	3006408.865679254995	6
0	175754	3006434.435038078248	5
0	175759	3006452.514189367106	4
0	175764	3006472.082915639138	3
0	175770	3006492.784769040374	4
0	175771	3006500.973196003078	3
0	175777	3006613.786167976417	4
0	175779	3006627.927303823267	5
0	175781	3006693.221502114635	6
0	175782	3006695.416190454626	5
0	175787	3006698.731737361479	4
0	175792	3006702.856920097316	3
0	175797	3006709.671339303682	2
0	175802	3006756.106124460932	1
0	175808	3006758.699032021252	2
0	175810	3006765.101722989761	3
0	175811	3006770.820858872961	2
0	175816	3006793.551845400439	1
0	175821	3006848.991549490845	0
0	175866	3007526.526573845705	1
0	175867	3007528.947576656806	0
0	175950	3009070.08252141857	1
0	175951	3009093.232052771455	0
0	175992	3009808.843500115534	1
0	175994	3009811.209818315413	2
0	175995	3009869.811847001141	1
0	176000	3009896.647798272756	0
0	176034	3010677.95757751414	1
0	176035	3010700.841198818558	0
0	176083	3011167.729143770345	1
0	176084	3011180.605637160226	0
0	176098	3011402.675482885314	1
0	176100	3011425.941868056708	2
0	176102	3011482.184945915576	3
0	176104	3011485.176447851908	4
0	176106	3011592.88577779585	5
0	176108	3011683.312399372822	6
0	176110	3011719.628621026176	7
0	176112	3011786.850251445222	8
0	176114	3011796.524099681734	9
0	176116	3011800.253612631248	10
0	176118	3012015.914476732144	11
0	176120	3012112.946054909805	12
0	176122	3012164.552370367847	13
0	176123	3012256.839155541716	12
0	176128	3012267.917874324721	13
0	176130	3012536.147268618194	14
0	176131	3012548.883080275835	13
0	176135	3012575.037628601393	12
0	176141	3012585.436688917984	13
0	176142	3012601.223604930428	12
0	176148	3012614.759365576665	13
0	176150	3012679.244637180107	14
0	176152	3012700.962450511497	15
0	176153	3012725.870733104485	14
0	176156	3012733.527261867993	15
0	176158	3012778.34776837619	16
0	176160	3012783.607359943649	17
0	176161	3012798.222165490162	16
0	176166	3012856.73088996985	15
0	176171	3012892.461277937378	14
0	176176	3012896.750389227317	13
0	176181	3012917.603904079079	12
0	176186	3012918.744467707381	11
0	176192	3012927.007512846842	12
0	176193	3012931.548724349202	11
0	176198	3013010.157848270154	10
0	176203	3013057.124528134773	9
0	176208	3013092.067116094863	8
0	176213	3013104.453010295715	7
0	176223	3013134.178182978407	8
0	176224	3013204.853813610471	7
0	176229	3013217.704511295471	6
0	176235	3013241.604303809259	7
0	176236	3013242.273009659735	6
0	176241	3013247.732834791146	5
0	176247	3013251.425916278623	6
0	176248	3013263.697100302352	5
0	176253	3013297.575881193266	4
0	176258	3013300.931599690872	3
0	176263	3013311.782606613912	2
0	176268	3013319.708128040967	1
0	176274	3013324.192932365114	2
0	176275	3013367.727792565451	1
0	176280	3013411.139338427346	0
0	176293	3013601.42040864435	1
0	176294	3013620.05431708162	0
0	176307	3013794.449085878389	1
0	176309	3013813.892544664802	2
0	176310	3013900.490890927241	1
0	176315	3013903.838364846594	0
0	176342	3014308.771513893832	1
0	176343	3014310.098707781346	0
0	176363	3014454.874003083506	1
0	176364	3014510.98271364444	0
0	176391	3015335.138238461879	1
0	176392	3015346.400134635569	0
0	176426	3016300.863685829098	1
0	176427	3016321.526711444136	0
0	176454	3016889.413727067538	1
0	176456	3016904.743681071728	2
0	176457	3016945.548517217809	1
0	176463	3017009.42324746934	2
0	176464	3017013.863791363716	1
0	176469	3017093.248053412141	0
0	176517	3018069.139753931528	1
0	176518	3018096.398043898338	0
0	176545	3018824.241794809392	1
0	176546	3018824.918232893625	0
0	176552	3018825.942794985103	1
0	176554	3018887.279221992262	2
0	176555	3019033.066263291728	1
0	176560	3019069.608351089494	0
0	176573	3019178.147396387117	1
0	176574	3019239.396061496722	0
0	176580	3019265.007792342032	1
0	176582	3019265.668599881032	2
0	176583	3019305.930731362732	1
0	176588	3019377.008540831518	0
0	176594	3019396.12782525436	1
0	176596	3019400.59456007273	2
0	176597	3019462.053964303448	1
0	176602	3019507.120225111342	0
0	176608	3019559.069284277575	1
0	176609	3019560.1575428452	0
0	176615	3019563.415319036206	1
0	176616	3019583.537557912621	0
0	176622	3019626.732442756646	1
0	176623	3019660.874843950664	0
0	176657	3020396.871223675287	1
0	176658	3020429.411631408223	0
0	176741	3021502.06714496375	1
0	176742	3021523.667187713181	0
0	176748	3021536.335907575227	1
0	176749	3021542.597517692466	0
0	176811	3022851.460154925512	1
0	176812	3022860.245193816355	0
0	176818	3022867.744066763733	1
0	176819	3022939.747259274218	0
0	176874	3023681.791104422748	1
0	176876	3023756.014608018607	2
0	176878	3023778.798516177197	3
0	176879	3023790.741726145891	2
0	176884	3023809.59783789121	1
0	176889	3023830.38676127285	0
0	176902	3024113.294228086758	1
0	176903	3024173.493073743219	0
0	176909	3024175.590616372439	1
0	176911	3024184.951297553828	2
0	176912	3024238.479802675204	1
0	176918	3024394.488343803763	2
0	176919	3024415.781614007574	1
0	176922	3024416.165836693886	0
0	176937	3024635.570176742773	1
0	176938	3024730.790773739026	0
0	176944	3024746.847717464812	1
0	176946	3024770.904253955568	2
0	176947	3024782.577994757554	1
0	176952	3024801.255139324483	0
0	177051	3026552.419840293231	1
0	177052	3026557.757433602452	0
0	177065	3026592.819576768374	1
0	177066	3026612.195580094641	0
0	177094	3027108.427170351608	1
0	177096	3027130.16024879121	2
0	177097	3027236.628525248843	1
0	177103	3027304.297409585311	2
0	177105	3027590.11952792786	3
0	177106	3027636.631509762541	2
0	177109	3027674.957381784392	3
0	177110	3027724.319323055345	2
0	177115	3027856.400295992736	1
0	177120	3027863.931573000364	0
0	177126	3027899.489426732863	1
0	177131	3027983.433588329053	0
0	177151	3028310.820564588698	1
0	177153	3028327.99894486922	2
0	177154	3028329.465721324119	1
0	177159	3028398.421035859894	0
0	177165	3028399.027404282522	1
0	177167	3028412.542255878913	2
0	177168	3028479.546761535418	1
0	177173	3028509.003473685743	0
0	177207	3028993.293533457738	1
0	177208	3029003.474915201546	0
0	177228	3029636.714600127788	1
0	177229	3029657.341408766028	0
0	177249	3029837.009022145655	1
0	177250	3029839.220669372839	0
0	177319	3031026.125752743997	1
0	177321	3031097.286390362221	2
0	177322	3031121.240260288008	1
0	177327	3031165.316422546784	0
0	177347	3031451.537013808059	1
0	177348	3031452.338510554653	0
0	177368	3031900.384659134473	1
0	177370	3031924.889172028296	2
0	177372	3031936.435725187811	3
0	177373	3031946.56064815296	2
0	177378	3032000.227724779157	1
0	177383	3032018.491437520068	0
0	177403	3032257.760068965147	1
0	177404	3032308.358078616673	0
0	177417	3032531.706798761944	1
0	177418	3032533.446488928158	0
0	177424	3032581.74847499677	1
0	177425	3032633.632529350806	0
0	177438	3032915.907270343487	1
0	177439	3032924.831768197955	0
0	177452	3033130.712246374671	1
0	177454	3033141.067287325569	2
0	177455	3033169.182611939977	1
0	177460	3033184.769742226132	0
0	177489	3033784.446490396802	1
0	177490	3033835.607535670923	0
0	177496	3033853.647598666963	1
0	177497	3033877.747439975658	0
0	177510	3034027.453077963871	1
0	177512	3034030.858177358579	2
0	177514	3034088.422544522507	3
0	177516	3034129.179125900593	4
0	177517	3034144.030266498815	3
0	177522	3034250.053911736828	2
0	177527	3034282.749922943384	1
0	177532	3034290.617249801927	0
0	177566	3034847.202618928864	1
0	177567	3034870.32616911647	0
0	177573	3034888.471178474233	1
0	177575	3034917.98103172066	2
0	177577	3034941.165535502112	3
0	177579	3034943.853902698302	4
0	177580	3034986.665057806502	3
0	177586	3034999.863816538313	4
0	177588	3035027.922415938134	5
0	177589	3035028.921618785223	4
0	177594	3035084.449258320246	3
0	177599	3035127.110645401484	2
0	177605	3035212.595716956686	3
0	177606	3035254.087929771093	2
0	177611	3035260.986212587156	1
0	177616	3035343.679218740713	0
0	177622	3035357.809449245312	1
0	177623	3035419.829058489193	0
0	177664	3035986.925688760359	1
0	177665	3036003.073947969924	0
0	177669	3036004.092977780916	1
0	177673	3036012.90798143615	2
0	177675	3036021.354417262121	3
0	177676	3036039.072219735086	2
0	177682	3036141.104741225358	3
0	177683	3036254.282251076007	2
0	177688	3036262.321042881455	1
0	177693	3036296.619132078361	0
0	177706	3036329.943013321342	1
0	177707	3036332.307939650789	0
0	177713	3036340.84603135338	1
0	177714	3036350.433442387443	0
0	177734	3036569.728159163996	1
0	177736	3036590.357147138081	2
0	177737	3036591.513871118338	1
0	177742	3036645.460991838381	0
0	177755	3036848.298773788174	1
0	177756	3036872.53143134725	0
0	177762	3036949.624871613204	1
0	177764	3036956.067061540622	2
0	177765	3037036.274134230922	1
0	177770	3037052.85216316781	0
0	177783	3037292.418517310691	1
0	177784	3037336.105553468004	0
0	177787	3037390.996692673554	1
0	177793	3037626.920480185621	2
0	177795	3037714.038249484345	3
0	177797	3038099.940638657396	4
0	177799	3038307.225118576961	5
0	177800	3038338.432079072423	4
0	177806	3038397.943699696019	5
0	177807	3038473.724991886034	4
0	177812	3038489.523899127745	3
0	177818	3038683.159615578339	4
0	177819	3038709.645712175042	3
0	177825	3038843.8999265734	4
0	177827	3038951.907306843167	5
0	177828	3038984.134500842001	4
0	177834	3039005.294926158627	5
0	177836	3039125.304928285911	6
0	177838	3039326.03620564107	7
0	177840	3039332.906227964711	8
0	177842	3039338.272187637897	9
0	177844	3039444.327931457893	10
0	177845	3039496.52579608584	9
0	177850	3039566.130496392269	10
0	177852	3039598.808450585721	11
0	177853	3039696.896462421789	10
0	177858	3039775.748655666119	11
0	177860	3039883.871156701599	12
0	177862	3039921.407441998179	13
0	177864	3039936.780375164232	14
0	177866	3039990.666751987092	15
0	177868	3040122.445703029047	16
0	177869	3040137.913397043228	15
0	177875	3040140.268803853004	16
0	177877	3040343.674617973659	17
0	177879	3040570.429578615352	18
0	177881	3040680.586446740536	19
0	177883	3040775.381139532529	20
0	177884	3040785.61005963895	19
0	177890	3040860.40817698548	20
0	177891	3040911.267315241974	19
0	177896	3041068.195003208038	20
0	177897	3041097.553393467374	19
0	177902	3041108.051690867802	18
0	177907	3041188.450930566024	19
0	177909	3041207.899453327822	20
0	177911	3041334.45147215183	21
0	177913	3041341.594711347242	22
0	177915	3041398.860320791395	23
0	177916	3041414.501903007484	22
0	177922	3041444.664997791466	23
0	177923	3041577.125267921621	22
0	177928	3041581.580290163646	23
0	177929	3041679.469753106224	22
0	177934	3041790.549801607972	23
0	177936	3042028.290685047797	24
0	177938	3042090.873124122069	25
0	177939	3042114.187068770006	24
0	177944	3042134.450015183928	25
0	177945	3042485.138816066174	24
0	177949	3042519.923240945018	23
0	177955	3042546.538471925525	24
0	177957	3042703.029230049843	25
0	177959	3042718.370359572797	26
0	177961	3042735.407448553173	27
0	177963	3042743.246871536916	28
0	177964	3042746.004029961211	27
0	177968	3042841.678809428382	26
0	177973	3042862.290406227871	27
0	177974	3042957.9749340575	26
0	177978	3042987.319437167094	25
0	177983	3043073.372185510578	26
0	177984	3043112.030120472664	25
0	177989	3043170.323353632692	26
0	177991	3043265.735689842434	27
0	177993	3043358.06515963096	28
0	177994	3043375.40454533755	27
0	178000	3043470.576925918169	28
0	178002	3043487.205247878514	29
0	178004	3043514.699884062088	30
0	178005	3043544.201040301286	29
0	178008	3043576.305854650608	28
0	178014	3043647.422287216587	29
0	178015	3043677.425752142121	28
0	178020	3043694.266656246518	27
0	178025	3043744.243431047319	26
0	178031	3043751.613328630872	27
0	178032	3043757.149811865656	26
0	178038	3043804.040489476021	27
0	178040	3043860.558949689165	28
0	178041	3043952.37511741618	27
0	178047	3043956.230340602906	28
0	178049	3043962.517193984155	29
0	178051	3043979.843654321201	30
0	178053	3044074.469370914971	31
0	178054	3044090.68194695892	30
0	178059	3044105.380093152482	29
0	178064	3044139.740480422905	28
0	178070	3044175.707947233319	27
0	178074	3044178.923036673659	28
0	178078	3044206.807781383147	29
0	178080	3044268.492534285109	30
0	178082	3044284.151953064571	31
0	178084	3044297.43262382676	32
0	178085	3044319.921371634211	31
0	178090	3044333.257680234265	30
0	178099	3044411.322368032263	29
0	178105	3044469.315553503729	30
0	178107	3044544.955993074907	31
0	178108	3044697.48537788424	30
0	178113	3044729.866926916852	29
0	178117	3044730.866001001255	30
0	178121	3044778.3181327308	31
0	178122	3044826.873144352198	30
0	178127	3044867.87689894885	29
0	178132	3044894.497652900129	28
0	178137	3044908.768301837644	27
0	178142	3044911.764481476257	26
0	178147	3044916.327953089608	25
0	178152	3044959.209632855043	24
0	178157	3044966.772859076172	23
0	178162	3044972.262212786827	22
0	178167	3045002.168413509268	21
0	178172	3045076.523068437945	20
0	178177	3045129.270629074074	19
0	178182	3045135.097425556188	18
0	178188	3045154.852010269829	19
0	178189	3045187.097652096448	18
0	178195	3045219.098953339436	19
0	178196	3045238.504058981661	18
0	178199	3045240.499469296531	17
0	178206	3045248.834815184915	16
0	178211	3045275.395220177	15
0	178218	3045465.563987282183	16
0	178220	3045575.676912231749	17
0	178222	3045815.287986316811	18
0	178224	3045915.41616200172	19
0	178226	3046021.368294589725	20
0	178228	3046193.398198110891	21
0	178229	3046461.855163112094	20
0	178234	3046473.54623644239	19
0	178240	3046573.982860101859	20
0	178242	3046679.54020387241	21
0	178243	3046802.943104239181	20
0	178248	3046805.164564856525	21
0	178249	3046820.727765994268	20
0	178255	3046943.861941659062	21
0	178256	3047022.273760921907	20
0	178258	3047024.842335001333	19
0	178268	3047073.398946361392	20
0	178269	3047085.564310505218	19
0	178274	3047089.068233096142	18
0	178279	3047106.175700942002	17
0	178284	3047132.375325790971	16
0	178289	3047148.658916722301	15
0	178294	3047166.529419323409	14
0	178300	3047192.213077832188	13
0	178306	3047254.726058664731	14
0	178307	3047285.33418801687	13
0	178312	3047289.896450176248	12
0	178317	3047309.928190047183	11
0	178322	3047376.073985681935	10
0	178327	3047379.316712435091	9
0	178332	3047388.792118983505	8
0	178335	3047389.106929511943	7
0	178342	3047394.933642142652	6
0	178347	3047427.918024397944	5
0	178352	3047441.562005706596	4
0	178357	3047444.693245186457	3
0	178362	3047465.002439329639	2
0	178367	3047504.845114405641	1
0	178372	3047569.198642301387	0
0	178385	3047709.108391145909	1
0	178386	3047719.84379902735	0
0	178392	3047736.322715108186	1
0	178393	3047748.379294532863	0
0	178413	3048064.371910407296	1
0	178414	3048137.023092679442	0
0	178420	3048165.015045748858	1
0	178422	3048229.155270384659	2
0	178424	3048229.593049904286	3
0	178426	3048278.171787899949	4
0	178427	3048300.717424542165	3
0	178433	3048307.803561493091	4
0	178435	3048332.172844053895	5
0	178437	3048346.130167667333	6
0	178439	3048377.826676191775	7
0	178440	3048415.929388744754	6
0	178445	3048448.120267576669	5
0	178451	3048469.194742428822	6
0	178452	3048495.464028616678	5
0	178457	3048506.541100940617	4
0	178463	3048515.691559937102	5
0	178464	3048533.377419060183	4
0	178469	3048648.241724882295	3
0	178474	3048659.063204232364	2
0	178479	3048670.020886948021	1
0	178485	3048712.307858894392	2
0	178486	3048746.102668173045	1
0	178491	3048783.073067954661	0
0	178498	3048856.879185748814	1
0	178500	3048883.834203218217	2
0	178502	3048964.106521153827	3
0	178504	3049014.529790274064	4
0	178506	3049028.262486291799	5
0	178508	3049059.831626600284	6
0	178509	3049117.951749641891	5
0	178515	3049217.66690565889	6
0	178517	3049320.137467785353	7
0	178519	3049350.733169731545	8
0	178521	3049421.506488581001	9
0	178522	3049490.133639853221	8
0	178528	3049500.869968520268	9
0	178529	3049542.591514356579	8
0	178534	3049581.277171978635	9
0	178536	3049625.709833775193	10
0	178537	3049627.281118098724	9
0	178543	3049675.059736195216	10
0	178544	3049694.51096861682	9
0	178549	3049911.971123307369	10
0	178551	3049943.072133805909	11
0	178553	3050021.586126970376	12
0	178555	3050148.898889894348	13
0	178557	3050176.275797761612	14
0	178559	3050199.001561722193	15
0	178561	3050351.956568765957	16
0	178562	3050375.138011569623	15
0	178568	3050519.894705206919	16
0	178569	3050530.436293122069	15
0	178574	3050549.317417580072	16
0	178576	3050608.405740048609	17
0	178577	3050623.968396275187	16
0	178583	3050823.977241665481	17
0	178584	3051011.638694647005	16
0	178589	3051118.873566431945	15
0	178594	3051332.002894100967	16
0	178596	3051421.921569436263	17
0	178597	3051471.815391710516	16
0	178602	3051480.941782456466	17
0	178604	3051484.903546599978	18
0	178606	3051538.274272305361	19
0	178607	3051550.833193891656	18
0	178611	3051607.800314715841	17
0	178615	3051612.45460185231	18
0	178616	3051621.100548152068	17
0	178625	3051699.624819678738	16
0	178631	3051774.612219272208	17
0	178632	3051794.82547695255	16
0	178637	3051800.854644962395	15
0	178643	3051822.318729606895	16
0	178645	3051885.030365345492	17
0	178647	3051947.154163396813	18
0	178648	3051982.728806536266	17
0	178654	3052024.3175202429	18
0	178655	3052030.374214078005	17
0	178660	3052120.875308430991	16
0	178666	3052125.362272744028	17
0	178667	3052125.929450322149	16
0	178674	3052142.291232404706	17
0	178675	3052185.915658158186	16
0	178680	3052244.777230216713	15
0	178686	3052250.915214948078	16
0	178688	3052293.942397457378	17
0	178689	3052299.300001580201	16
0	178694	3052303.422324918235	15
0	178699	3052348.687519166234	14
0	178704	3052395.215626926822	13
0	178709	3052400.662821733015	12
0	178714	3052406.234503083445	11
0	178719	3052455.660081171518	10
0	178724	3052469.355221898368	9
0	178727	3052470.366540597544	8
0	178732	3052473.669505300315	7
0	178740	3052594.401744760127	8
0	178741	3052682.897972679141	7
0	178747	3052685.753624419733	8
0	178748	3052701.867628776399	7
0	178753	3052715.818499141835	6
0	178758	3052811.352892584657	5
0	178763	3052851.89670702965	4
0	178768	3052921.513738777914	3
0	178775	3053200.052791651366	4
0	178776	3053227.82516105753	3
0	178778	3053248.059935544161	2
0	178783	3053277.522179749919	1
0	178788	3053321.518332370343	0
0	178801	3053421.753146982113	1
0	178802	3053423.08685890865	0
0	178854	3053790.828589664499	1
0	178855	3053800.877510984908	0
0	178861	3053804.283780562145	1
0	178862	3053818.185106016952	0
0	178910	3054313.370001905463	1
0	178911	3054314.089319398792	0
0	178954	3055554.864775163493	1
0	178955	3055577.720768484024	0
0	178961	3055581.256825588479	1
0	178962	3055604.237340635995	0
0	178975	3055772.94234927567	1
0	178977	3055774.439696033432	2
0	178978	3055800.525733138467	1
0	178984	3055846.637688502576	2
0	178986	3055853.37638653962	3
0	178987	3055868.731244523644	2
0	178992	3055873.988735490412	1
0	178997	3055880.124445581341	0
0	179031	3056427.552749635539	1
0	179032	3056447.23526164186	0
0	179054	3057145.738650807873	1
0	179056	3057146.473037652624	2
0	179058	3057148.421805300991	3
0	179059	3057210.922668411195	2
0	179064	3057225.091640814827	1
0	179069	3057241.765088476277	0
0	179075	3057312.85684939383	1
0	179076	3057382.415171635363	0
0	179096	3057727.19494081988	1
0	179097	3057766.520421987265	0
0	179117	3057813.700093875598	1
0	179118	3057821.293108030403	0
0	179145	3058028.165531030575	1
0	179147	3058058.722400712067	2
0	179148	3058073.294697321537	1
0	179153	3058108.65963050048	0
0	179167	3058640.639499179147	1
0	179169	3058819.64145714386	2
0	179171	3059112.28475057071	3
0	179173	3059133.296498812324	4
0	179174	3059306.803474627189	3
0	179180	3059338.512422975222	4
0	179182	3059397.213536664315	5
0	179184	3059538.428880574284	6
0	179185	3059576.497401863202	5
0	179191	3059637.482239352775	6
0	179192	3059726.163943851441	5
0	179197	3059769.830098774553	6
0	179199	3059806.259075579348	7
0	179201	3059815.648424477792	8
0	179203	3059917.791594603873	9
0	179204	3059966.401995097991	8
0	179209	3059986.763298019423	9
0	179210	3060090.536935075385	8
0	179216	3060103.414483088834	9
0	179218	3060195.471109627206	10
0	179220	3060291.599231969545	11
0	179222	3060332.266778067984	12
0	179223	3060386.481866461125	11
0	179229	3060422.721733653367	12
0	179231	3060423.553172206731	13
0	179233	3060618.514532328101	14
0	179235	3060708.24012841773	15
0	179237	3060786.751904873077	16
0	179239	3060868.70584366069	17
0	179241	3060869.497475587138	18
0	179243	3060882.741312244458	19
0	179245	3060892.631889625559	20
0	179246	3060930.481451851834	19
0	179251	3061035.956454453234	20
0	179252	3061076.321297248984	19
0	179257	3061122.65005840963	18
0	179260	3061196.262085025319	19
0	179261	3061247.955041261529	18
0	179266	3061298.27173604506	17
0	179271	3061313.877619087667	16
0	179277	3061337.413965161856	15
0	179288	3061539.030152612427	16
0	179290	3061595.055391053994	17
0	179291	3061624.421236685924	16
0	179296	3061707.030574755799	15
0	179302	3061835.093374280012	16
0	179304	3061914.398144494291	17
0	179306	3062038.766623003029	18
0	179307	3062073.645544966657	17
0	179312	3062103.377624348972	18
0	179314	3062126.131228371507	19
0	179316	3062130.375339215489	20
0	179317	3062141.144119753405	19
0	179323	3062175.762760160656	20
0	179324	3062433.180048235431	19
0	179330	3062434.878691884604	20
0	179331	3062493.372517375089	19
0	179337	3062510.331054899053	18
0	179342	3062532.502891042639	17
0	179347	3062547.200790734082	16
0	179352	3062592.403694157899	15
0	179357	3062601.454506492205	14
0	179362	3062601.906791285978	13
0	179367	3062636.831834547421	12
0	179372	3062639.57701365656	11
0	179376	3062640.335555918245	12
0	179379	3062644.734215243809	11
0	179385	3062655.636002706267	12
0	179386	3062693.491407367239	11
0	179391	3062725.250587072337	10
0	179397	3062771.715780758081	11
0	179398	3062833.386427467987	10
0	179404	3062881.169398866992	11
0	179405	3062937.520332948254	10
0	179411	3062979.145816850702	11
0	179412	3063058.225887476505	10
0	179418	3063102.591716251837	11
0	179419	3063111.228918793187	10
0	179425	3063256.392776133678	9
0	179431	3063357.203057734084	10
0	179433	3063395.740768999599	11
0	179434	3063514.101686666188	10
0	179436	3063520.172086211679	9
0	179445	3063593.379437409817	8
0	179450	3063613.689284269841	7
0	179455	3063637.793735108994	6
0	179460	3063661.051265987322	5
0	179465	3063695.059988195786	4
0	179470	3063734.746688011738	3
0	179475	3063747.105489312005	2
0	179480	3063762.153369473225	1
0	179485	3063777.795118021078	0
0	179519	3064662.431656189889	1
0	179520	3064758.939493343654	0
0	179554	3065285.115412835646	1
0	179555	3065433.964275064902	0
0	179603	3066541.311300475538	1
0	179604	3066547.595410848525	0
0	179646	3067617.678984474418	1
0	179647	3067635.190397489601	0
0	179650	3067661.890175740636	1
0	179652	3067680.331744080112	2
0	179654	3067730.876711349911	3
0	179655	3067750.366992935069	2
0	179661	3067753.566661099982	3
0	179663	3067768.091664567125	4
0	179665	3067772.058753289804	5
0	179666	3067777.675647927151	4
0	179671	3067824.719919317	3
0	179677	3067858.97759193497	4
0	179679	3067860.286897368281	5
0	179680	3067866.51216296724	4
0	179686	3067886.03173458281	5
0	179687	3067906.939951019448	4
0	179692	3067964.142222238453	3
0	179697	3067981.901660006388	2
0	179702	3067996.24415432239	1
0	179707	3068006.334398514236	0
0	179734	3068603.898965203634	1
0	179735	3068624.583537782515	0
0	179748	3068719.050890847255	1
0	179749	3068722.058379028356	0
0	179811	3069672.131673409248	1
0	179813	3069711.194115021265	2
0	179814	3069748.411946912015	1
0	179819	3069834.165491913522	0
0	179850	3070806.304733546851	1
0	179851	3070833.35509281035	0
0	179885	3071499.931262952962	1
0	179886	3071500.841967596114	0
0	179899	3071581.041073405549	1
0	179901	3071624.17668570598	2
0	179903	3071636.201605936651	3
0	179904	3071644.963244556326	2
0	179909	3071728.521538735745	1
0	179914	3071742.211433793896	0
0	179941	3072478.499877157912	1
0	179942	3072611.523262349531	0
0	179963	3072935.409605945695	1
0	179965	3072935.553948628951	2
0	179966	3073291.770827138266	1
0	179970	3073370.2212385786	0
0	179973	3073420.768289315462	1
0	179974	3073433.012390391898	0
0	179998	3073704.242731655348	1
0	179999	3073729.411578928843	0
0	180019	3074108.028593207797	1
0	180020	3074119.398122053333	0
0	180033	3074255.92417413293	1
0	180034	3074274.083255384982	0
0	180040	3074308.260445996754	1
0	180041	3074310.092533802553	0