version 2
run Simulations-14-20191218-11:09:14-65753
attr configname Simulations
attr datetime 20191218-11:09:14
attr experiment Simulations
attr inifile omnetpp.ini
attr iterationvars "$seed=7, $0=7200"
attr iterationvarsf seed=7,7200-
attr measurement "$seed=7, $0=7200"
attr network WifiCelNetPassiveQueue
attr processid 65753
attr repetition 0
attr replication #0
attr resultdir results/Simulations/omnet
attr runnumber 14
attr seedset 7
itervar seed 7
param **.numJobs 10000
param *.OFFLOAD.deadline exponential(7200s)
param *.source.interArrivalTime exponential(120s)
param *.WIFI.serviceTime exponential(40s)
param *.CELL.serviceTime exponential(400s)
param *.OFFLOAD.switchToWi exponential(1524s)
param *.OFFLOAD.switchToCel exponential(3120s)
param *.LOCAL.serviceTime exponential(5s)
param *.REMOTE.serviceTime exponential(1s)

vector 0 WifiCelNetPassiveQueue.WIFI serviceTime:vector ETV
attr interpolationmode none
attr title "wifi Service, vector"
attr unit s
vector 1 WifiCelNetPassiveQueue.WIFI responseTime:vector ETV
attr interpolationmode none
attr title "Response Time, vector"
attr unit s
vector 2 WifiCelNetPassiveQueue.OFFLOAD queueLength:vector ETV
attr interpolationmode sample-hold
attr title "queue length, vector"
vector 3 WifiCelNetPassiveQueue.REMOTE serviceTime:vector ETV
attr interpolationmode none
attr title "wifi Service, vector"
attr unit s
vector 4 WifiCelNetPassiveQueue.REMOTE responseTime:vector ETV
attr interpolationmode none
attr title "Response Time, vector"
attr unit s
vector 5 WifiCelNetPassiveQueue.sink lifeTime:vector ETV
attr interpolationmode none
attr title "lifetime of arrived jobs, vector"
attr unit s
vector 6 WifiCelNetPassiveQueue.REMOTE queueLength:vector ETV
attr interpolationmode sample-hold
attr title "queue length, vector"
vector 7 WifiCelNetPassiveQueue.OFFLOAD storeCelTime:vector ETV
attr interpolationmode none
attr title "Time in Cell, vector"
attr unit s
vector 8 WifiCelNetPassiveQueue.OFFLOAD storeDeadline:vector ETV
attr interpolationmode none
attr title "deadline, vector"
attr unit s
vector 9 WifiCelNetPassiveQueue.CELL serviceTime:vector ETV
attr interpolationmode none
attr title "wifi Service, vector"
attr unit s
vector 10 WifiCelNetPassiveQueue.CELL responseTime:vector ETV
attr interpolationmode none
attr title "Response Time, vector"
attr unit s
vector 11 WifiCelNetPassiveQueue.OFFLOAD storeWifiTime:vector ETV
attr interpolationmode none
attr title "Time in Wifi, vector"
attr unit s
vector 12 WifiCelNetPassiveQueue.LOCAL serviceTime:vector ETV
attr interpolationmode none
attr title "wifi Service, vector"
attr unit s
vector 13 WifiCelNetPassiveQueue.LOCAL responseTime:vector ETV
attr interpolationmode none
attr title "Response Time, vector"
attr unit s
vector 14 WifiCelNetPassiveQueue.LOCAL queueLength:vector ETV
attr interpolationmode sample-hold
attr title "queue length, vector"
0	175169	3000010.220891907559	58.517541868329
0	175176	3000038.064682683098	27.843790775539
0	175181	3000049.675688509278	11.61100582618
0	175186	3000073.31399357841	23.638305069132
0	175191	3000090.743594317098	17.429600738688
0	175196	3000175.828389941978	85.08479562488
0	175201	3000177.212252642919	1.383862700941
0	175206	3000180.685896402568	3.473643759649
0	175211	3000220.783006935989	40.097110533421
0	175214	3000221.310020060253	0.527013124264
0	175223	3000462.264086972128	28.214531247324
0	175230	3000511.250992179057	1.351205814553
0	175239	3000713.039176618413	180.83963264639
0	175246	3000724.042741499931	11.003564881518
0	175251	3000767.957506676588	43.914765176657
0	175258	3001071.122064158064	60.877817509126
0	175265	3001349.568226891172	31.038628786847
0	175276	3001501.542138365784	68.771279280767
0	175302	3002274.028963910242	14.696008202351
0	175309	3002543.036918288703	15.398009694675
0	175316	3002655.132632595341	7.450709136549
0	175323	3002751.900166217744	7.010882143557
0	175330	3002782.168049251618	10.361766220294
0	175339	3002949.4183612212	66.952863111766
0	175344	3002952.438327594112	3.019966372912
0	175351	3003035.629491571319	59.600437948798
0	175360	3003166.033606288857	61.640010911309
0	175366	3003193.187820796658	27.154214507801
0	175437	3004844.182412789554	2.688344526901
0	175442	3004850.700245825927	6.517833036373
0	175450	3004975.60968883125	124.90944300532
0	175457	3005038.838876393981	63.229187562731
0	175462	3005060.17476588829	21.335889494309
0	175471	3005178.617272106647	118.44250621836
0	175478	3005191.227513195702	12.610241089055
0	175483	3005228.559793693368	37.332280497666
0	175486	3005228.756784336207	0.196990642839
0	175497	3005311.633575421478	82.876791085271
0	175502	3005333.399015164664	21.765439743186
0	175507	3005362.809698779429	29.410683614765
0	175512	3005377.942950073358	15.133251293929
0	175521	3005504.086915419208	126.14396534585
0	175526	3005561.286187389821	57.199271970613
0	175535	3005615.533115958263	54.246928568442
0	175540	3005638.672365177886	23.139249219623
0	175545	3005687.283696197967	48.611331020081
0	175552	3005782.481791208258	95.198095010291
0	175557	3005827.57551058214	45.093719373882
0	175562	3005843.013495578607	15.437984996467
0	175567	3005924.853542758189	81.840047179582
0	175578	3005978.877043771409	54.02350101322
0	175583	3005997.15412305033	18.277079278921
0	175590	3006030.672926218127	33.518803167797
0	175595	3006034.504537477466	3.831611259339
0	175600	3006064.365870382058	29.861332904592
0	175611	3006204.044163133872	139.67829275181
0	175616	3006207.121507942232	3.07734480836
0	175621	3006213.515872079117	6.394364136885
0	175626	3006270.781528866318	57.265656787201
0	175633	3006424.508550644396	22.913438080527
0	175640	3006463.961678168734	8.017993614159
0	175647	3006604.977983980304	26.004108967304
0	175655	3006932.400544461559	34.048738951402
0	175673	3007642.727216302486	9.395299001025
0	175708	3008955.187495251407	5.383470930943
0	175713	3008985.642939211393	30.455443959986
0	175718	3008996.533089623821	10.890150412428
0	175725	3009162.345136791981	165.81204716816
0	175732	3009229.32326928783	66.978132495849
0	175737	3009303.889487428606	74.566218140776
0	175742	3009309.062350743661	5.172863315055
0	175747	3009338.099205517522	29.036854773861
0	175754	3009479.775035481559	141.67582996404
0	175761	3009550.807491938996	71.032456457437
0	175768	3009665.062594908169	114.25510296917
0	175773	3009696.036975933592	30.974381025423
0	175782	3009766.02461857005	51.652640001897
0	175787	3009800.431911458718	34.407292888668
0	175794	3010049.391551008421	2.660742762184
0	175801	3010243.662051110662	55.006556386668
0	175810	3010494.548283344432	73.551255061041
0	175815	3010503.279629204177	8.731345859745
0	175822	3010691.918312461738	23.549750096002
0	175831	3010773.137002830805	13.184222235523
0	175836	3010796.909450835196	23.772448004391
0	175843	3010808.685991177768	0.82564280109
0	175854	3010900.552429653368	83.468674863939
0	175859	3010907.880809086966	7.328379433598
0	175864	3010959.34144644813	51.460637361164
0	175873	3011116.629895701719	11.615069198975
0	175878	3011125.651982849711	9.022087147992
0	175885	3011221.765333094086	68.746570543615
0	175892	3011318.021047090435	3.213341039117
0	175901	3011468.926645029416	28.484590733326
0	175906	3011477.512875577768	8.586230548352
0	175919	3011574.117145282932	29.200728760897
0	175924	3011607.117930127576	33.000784844644
0	175937	3012073.107296706905	132.53833140675
0	175942	3012079.850516484924	6.743219778019
0	175947	3012085.506015842026	5.655499357102
0	175958	3012176.490859883016	90.98484404099
0	175963	3012181.408697165722	4.917837282706
0	175970	3012235.8608686495	54.452171483778
0	175977	3012287.762357965723	51.901489316223
0	175984	3012359.009971322633	71.24761335691
0	175989	3012364.106668142137	5.096696819504
0	175994	3012371.711189797113	7.604521654976
0	176001	3012565.894163338887	46.730482351886
0	176008	3012626.067718048463	5.072463791863
0	176072	3014280.690117213663	74.453446069274
0	176077	3014282.394779539866	1.704662326203
0	176082	3014318.449785238193	36.055005698327
0	176087	3014342.425563811793	23.9757785736
0	176092	3014351.851909498775	9.426345686982
0	176097	3014420.289686049376	68.437776550601
0	176112	3014756.051308102026	189.14138570596
0	176121	3014781.455787053822	25.404478951796
0	176126	3014805.499187099866	24.043400046044
0	176133	3014824.913137476234	19.413950376368
0	176140	3014964.970072907978	140.05693543174
0	176147	3014996.778785456227	31.808712548249
0	176152	3015002.898394284793	6.119608828566
0	176157	3015011.309348827777	8.410954542984
0	176164	3015121.010732530804	71.207641943213
0	176171	3015139.277846602159	14.708423371321
0	176180	3015382.626439716474	56.700366082485
0	176187	3015426.126067704934	43.49962798846
0	176192	3015434.61817345546	8.492105750526
0	176199	3015569.086709264099	47.728753066088
0	176206	3015791.879291312679	14.076552857399
0	176270	3018365.920252017304	19.082073459824
0	176275	3018410.646578431938	44.726326414634
0	176284	3018469.005369009884	58.358790577946
0	176289	3018497.821725682423	28.816356672539
0	176294	3018521.242625880092	23.420900197669
0	176299	3018536.324130886942	15.08150500685
0	176304	3018548.640391189273	12.316260302331
0	176309	3018586.784748618947	38.144357429674
0	176316	3018671.485844775836	20.963214665164
0	176323	3018736.770685419105	0.656659084777
0	176336	3018964.262882781052	82.766280277175
0	176341	3018980.081332822197	15.818450041145
0	176350	3019098.385334371046	51.871995710643
0	176355	3019108.696286199925	10.310951828879
0	176362	3019137.042754727986	6.017445377585
0	176369	3019234.972990738889	86.941598289408
0	176376	3019258.93200379898	22.140557646206
0	176385	3019322.730566093371	42.428349163876
0	176388	3019324.997682342794	2.267116249423
0	176397	3019518.497696277973	31.99187946113
0	176404	3019651.312585214626	36.034217041422
0	176411	3019785.930904892596	48.144258379618
0	176422	3019904.607047969988	71.602970870942
0	176435	3019995.003960355803	90.396912385815
0	176440	3020069.614048280236	74.610087924433
0	176445	3020073.924907648078	4.310859367842
0	176450	3020103.084725640984	29.159817992906
0	176455	3020126.020178199259	22.935452558275
0	176460	3020134.464441432751	8.444263233492
0	176467	3020206.616371897089	15.009414920513
0	176474	3020272.289821892593	4.906623677359
0	176481	3020367.168250772763	9.794067617315
0	176490	3020497.808790888891	45.615112718179
0	176495	3020513.472544179909	15.663753291018
0	176502	3020573.101724998488	9.511411371933
0	176509	3020870.603224171992	59.090850668521
0	176516	3021264.407867293691	5.694700845296
0	176523	3021554.18007373183	57.95506640604
0	176530	3021661.462996837643	51.567902015518
0	176539	3021930.748334734928	35.430389347129
0	176544	3021933.664686719809	2.916351984881
0	176551	3021966.881458610214	5.657616028864
0	176558	3022134.863633103707	0.769580031107
0	176565	3022222.746064909926	46.818269625511
0	176572	3022288.226163107983	41.31738000759
0	176579	3022362.608892177923	2.738697640173
0	176586	3022394.12069598881	4.298968015712
0	176593	3022495.794730909686	6.340974492796
0	176600	3023187.197856795998	10.735353519812
0	176607	3023335.366766012672	73.621643074455
0	176614	3023393.009845658555	1.1380257843
0	176621	3023541.956917276621	106.6054480228
0	176628	3023835.174793280419	116.43282587762
0	176637	3023942.648654336188	50.812866378107
0	176642	3023945.905530030614	3.256875694426
0	176649	3024094.054744501361	32.888802275058
0	176656	3024173.379990076983	18.267653012227
0	176663	3024305.095255692671	5.043819487151
0	176670	3024741.268922172419	16.381180426607
0	176677	3024855.034528740684	4.249467730097
0	176684	3024888.599244565254	10.102489912421
0	176720	3026180.536722479742	54.560429845907
0	176725	3026231.191568704701	50.654846224959
0	176730	3026256.194891332234	25.003322627533
0	176735	3026301.869237306221	45.674345973987
0	176740	3026328.140961057964	26.271723751743
0	176745	3026332.423311777232	4.282350719268
0	176758	3026459.553252518366	95.785830035872
0	176763	3026496.169773896707	36.616521378341
0	176770	3026612.15725848193	28.669694341195
0	176777	3026722.573274359295	6.168343633253
0	176784	3026757.283163795466	7.852785454527
0	176791	3026920.090733411775	27.164557034165
0	176800	3027170.383880971631	104.17782262607
0	176805	3027197.631741510488	27.247860538857
0	176812	3027352.031070824867	36.130164162537
0	176819	3027365.227262114008	0.31400349599
0	176828	3027843.965210452226	48.980606778567
0	176839	3028011.852863733738	167.88765328151
0	176844	3028013.564656208841	1.711792475103
0	176851	3028076.099924025727	62.535267816886
0	176856	3028081.545705948886	5.445781923159
0	176861	3028155.796482303158	74.250776354272
0	176868	3028369.977941796836	26.982138022059
0	176897	3029330.084215908549	69.976008700013
0	176904	3029433.445318301486	33.727960557689
0	176911	3029520.173552189941	49.738796186354
0	176918	3029656.784162460832	21.412683107647
0	176925	3029717.690542306318	17.664235409028
0	176934	3029876.184343302628	14.983542938268
0	176939	3029878.310324812881	2.125981510253
0	176953	3030087.569684585145	87.847478878319
0	176958	3030090.193163052721	2.623478467576
0	176965	3030197.388732348205	31.353462357223
0	176972	3030298.887869683889	3.662579244383
0	176979	3030330.759939615373	13.618973268215
0	176986	3030402.874681353828	42.278843417832
0	176999	3030610.748835596231	133.85511347332
0	177008	3030645.602772806839	34.853937210608
0	177013	3030660.443835038695	14.841062231856
0	177018	3030687.341921992481	26.898086953786
0	177027	3030718.783837121912	14.822430041476
0	177034	3030821.773318865275	102.98948174336
0	177041	3030848.620683966754	26.847365101479
0	177048	3030853.57439920263	4.953715235876
0	177053	3030876.857567196978	23.283167994348
0	177060	3031083.337765166428	58.222458517838
0	177069	3031336.01763823736	200.94721889117
0	177076	3031357.677461841495	21.659823604135
0	177085	3031415.286406069815	57.60894422832
0	177092	3031467.016805082472	51.730399012657
0	177097	3031481.438026866647	14.421221784175
0	177102	3031498.224094143421	16.786067276774
0	177109	3031584.853721566377	79.52288619336
0	177116	3031629.926910607666	43.377757358801
0	177123	3031723.892186262815	65.939077407698
0	177132	3031872.474616360819	43.526506872172
0	177137	3031976.837191850799	104.36257548998
0	177144	3032039.525733128762	62.597724432399
0	177151	3032059.236653047883	9.455951727393
0	177158	3032141.133349264223	17.737083963809
0	177165	3032248.176225393814	30.247151936429
0	177172	3032333.831326379909	31.535654600787
0	177179	3033226.83847694068	114.67922661209
0	177188	3033377.935107559218	69.670275386021
0	177193	3033389.498189229986	11.563081670768
0	177200	3033438.866337289101	19.630686893756
0	177207	3033694.257716422154	33.306438710554
0	177214	3033790.160248179267	19.288984533297
0	177223	3033946.437637634523	51.979910549512
0	177230	3034005.709053802418	59.271416167895
0	177235	3034089.388816869799	83.679763067381
0	177244	3034183.098921184153	28.322020500976
0	177249	3034200.170330560001	17.071409375848
0	177256	3034290.885521119068	6.559610194792
0	177263	3034339.032662214643	4.886690425819
0	177270	3034462.702174159035	0.59894216589
0	177277	3034735.08467797509	34.996485012171
0	177284	3035026.380462941407	13.450712046193
0	177291	3035094.973131189009	20.799027088802
0	177298	3035405.5318538848	50.631176010552
0	177305	3035525.56004608428	4.727196585196
0	177354	3036398.430462007928	101.41304918183
0	177359	3036416.488711831632	18.058249823704
0	177366	3036533.372501741567	42.471543259959
0	177373	3036672.686604809432	38.526040706113
0	177384	3036772.087621359273	55.428408426898
0	177391	3036804.922879882357	11.943905792254
0	177398	3036862.696177532621	17.283522591134
0	177405	3036998.322773742547	3.80327896476
0	177412	3037064.709421260338	27.508671156272
0	177419	3037413.361453547377	1.499111852504
0	177426	3037600.806580912968	13.427028954918
0	177433	3037683.073461703829	17.152395707145
0	177440	3037690.850494342156	1.22853834925
0	177447	3038052.317011044012	10.482743441042
0	177454	3038193.720315641448	41.910597405925
0	177467	3038429.311186002817	134.09699900179
0	177472	3038532.670840457544	103.35965445473
0	177477	3038597.927462116848	65.256621659304
0	177482	3038619.149916552547	21.222454435699
0	177489	3038980.43348875997	11.448262394343
0	177496	3039375.561023181498	4.496491296289
0	177512	3040448.53795795866	7.680030867077
0	177517	3040459.729136024089	11.191178065429
0	177522	3040541.621242724558	81.892106700469
0	177529	3040704.477223928455	40.398672019178
0	177536	3040733.217460210702	2.858302440931
0	177617	3043007.694388793941	9.501695797173
0	177622	3043032.987933995067	25.293545201126
0	177629	3043077.311112357634	44.323178362567
0	177635	3043105.070974943468	27.759862585834
0	177640	3043121.703402533948	16.63242759048
0	177647	3043183.700161159125	61.996758625177
0	177652	3043188.351216344309	4.651055185184
0	177657	3043237.390275295103	49.039058950794
0	177666	3043300.914957150861	63.524681855758
0	177671	3043305.195945498812	4.280988347951
0	177680	3043360.473391302815	55.277445804003
0	177685	3043372.512190902261	12.038799599446
0	177690	3043374.140169560305	1.627978658044
0	177695	3043388.502020560313	14.361851000008
0	177700	3043449.49470725201	60.992686691697
0	177705	3043503.588525169568	54.093817917558
0	177712	3043569.114582172857	65.526057003289
0	177721	3043680.403959757919	111.28937758506
0	177726	3043722.962655761253	42.558696003334
0	177733	3043929.509023581365	206.54636782011
0	177738	3043966.589431228435	37.08040764707
0	177745	3044118.874372823403	89.202786035354
0	177754	3044247.403035622292	57.465553946584
0	177761	3044297.914470567866	50.511434945574
0	177768	3044321.78072821873	23.866257650864
0	177773	3044341.082912318731	19.302184100001
0	177780	3044730.407216425152	48.99204919495
0	177787	3044785.697208607125	5.143563235963
0	177794	3044940.847293189625	60.732870803702
0	177801	3045042.318091162478	83.879619791361
0	177808	3045371.909635121465	74.888227306992
0	177815	3045579.32576794714	0.680474555291
0	177822	3045597.705649348136	10.016701556983
0	177829	3045778.275185375673	13.12164371222
0	177836	3045964.961819145044	6.031378054745
0	177843	3046093.41870299221	62.519364555127
0	177850	3046383.867915822488	0.61425208824
0	177857	3046791.775028224725	1.73805081444
0	177864	3046874.444755449666	18.103881153252
0	177871	3047009.569395032479	86.039095925079
0	177878	3047245.923904383232	18.474561487976
0	177887	3047356.498888265668	42.101887453837
0	177894	3047431.330066168585	74.831177902917
0	177901	3047555.91603407195	124.58596790337
0	177910	3047618.981713928817	63.065679856867
0	177915	3047676.711794349358	57.730080420541
0	177920	3047692.573540849167	15.861746499809
0	177927	3047726.525166228258	12.840613558437
0	177936	3047919.319489470762	106.29884345299
0	177941	3047933.504529210672	14.18503973991
0	177948	3048024.725508701895	56.417957199331
0	177955	3048626.511523323995	95.924051078316
0	177962	3048942.056901638998	87.374748201191
0	177969	3049244.82065396477	14.910899496882
0	177976	3049321.936111960918	17.741636977761
0	177983	3049362.584587879516	7.283371611394
0	177990	3049541.229939318147	51.801187888137
0	177999	3049975.85699243912	76.944714468865
0	178006	3050079.103782963323	103.2467905242
0	178013	3050114.857046424508	35.753263461185
0	178020	3050171.732946366015	56.875899941507
0	178025	3050248.43207618543	76.699129819415
0	178032	3050448.588097128884	62.31243682658
0	178039	3050519.227725824927	46.790801992141
0	178136	3052695.240163613719	23.830764749462
0	178141	3052706.453642027412	11.213478413693
0	178148	3052799.91808504232	93.464443014908
0	178153	3052811.835829522661	11.917744480341
0	178158	3052826.40269570013	14.566866177469
0	178165	3052844.359210714606	17.956515014476
0	178170	3052870.021652518664	25.662441804058
0	178175	3052919.592040596389	49.570388077725
0	178186	3052943.848772794526	24.256732198137
0	178191	3053013.14622843425	69.297455639724
0	178196	3053113.465113363933	100.31888492968
0	178205	3053179.597064049857	66.131950685924
0	178210	3053193.079246052919	13.482182003062
0	178217	3053225.737631448115	32.658385395196
0	178222	3053251.855092522533	26.117461074418
0	178227	3053290.504096468656	38.649003946123
0	178232	3053320.748258865459	30.244162396803
0	178237	3053336.757124786927	16.008865921468
0	178242	3053355.525534344027	18.7684095571
0	178247	3053385.692418035271	30.166883691244
0	178254	3053547.241990720732	12.0818691607
0	178263	3053777.210860159411	68.244485994695
0	178270	3053811.67635301925	34.465492859839
0	178275	3053820.124498931415	8.448145912165
0	178282	3053924.751916123952	11.475313538222
0	178289	3054097.745306424152	24.784655820213
0	178300	3054166.941611536474	52.375710671775
0	178349	3055829.244063988952	38.344986494987
0	178354	3055834.073896170988	4.829832182036
0	178361	3055962.478634498381	128.40473832739
0	178366	3055995.552667613612	33.074033115231
0	178369	3055995.64330353065	0.090635917038
0	178376	3056021.164986572773	25.521683042123
0	178436	3057481.044144784669	4.515761582247
0	178447	3057551.920352366311	70.876207581642
0	178462	3058054.788716127529	43.485150869054
0	178467	3058056.890197878201	2.101481750672
0	178472	3058126.78239612872	69.892198250519
0	178477	3058149.894082933956	23.111686805236
0	178486	3058190.530241210051	40.636158276095
0	178491	3058203.466631595788	12.936390385737
0	178496	3058205.071320469264	1.604688873476
0	178501	3058205.551224891745	0.479904422481
0	178506	3058207.78044030116	2.229215409415
0	178511	3058221.180228313986	13.399788012826
0	178518	3058578.441597307268	5.70397596874
0	178525	3058642.907170506427	20.141665150024
0	178536	3058855.122321889311	22.338223897194
0	178543	3059147.540065510066	28.309286245901
0	178550	3059412.934223600135	25.767153948053
0	178557	3059486.802057937187	15.182109948943
0	178565	3059669.699609511351	73.122614546069
0	178603	3060810.046588367158	107.57708721115
0	178610	3060920.611864812316	110.56527644516
0	178616	3061007.11364494803	86.501780135714
0	178639	3061489.723423989612	6.254390907016
0	178644	3061526.838526034886	37.115102045274
0	178649	3061542.994147718628	16.155621683742
0	178656	3061597.344818534367	54.350670815739
0	178663	3061769.63226974754	172.28745121317
0	178668	3061788.038688056346	18.406418308806
0	178673	3061797.672682105039	9.633994048693
0	178678	3061801.386573473956	3.713891368917
0	178683	3061816.786905149328	15.400331675372
0	178696	3061919.819819147365	102.05807953779
0	178701	3061948.749629518177	28.929810370812
0	178708	3062058.155998652311	109.40636913413
0	178713	3062064.871749500692	6.715750848381
0	178720	3062128.984034309753	64.112284809061
0	178725	3062139.750004894293	10.76597058454
0	178732	3062182.713240306347	11.184661017691
0	178739	3062235.37338713589	25.442457592575
0	178746	3062276.335598594468	13.408899646016
0	178753	3062441.168928824694	12.406897633408
0	178760	3062478.88275726938	28.087304039129
0	178769	3062646.022464879662	66.299455428548
0	178774	3062665.721937291708	19.699472412046
0	178786	3062801.400966584566	106.6171474285
0	178811	3063518.72092391193	41.592452307122
0	178816	3063535.643402978815	16.922479066885
0	178829	3063556.246453173129	20.603050194314
0	178834	3063602.708923215948	46.462470042819
0	178841	3063709.59402932859	106.88510611264
0	178846	3063721.750938785006	12.156909456416
0	178851	3063744.752279271867	23.001340486861
0	178856	3063761.911714244899	17.159434973032
0	178863	3064158.502342865616	86.038226078597
0	178872	3064357.448512711077	50.18471150534
0	178875	3064359.49435112132	2.045838410243
0	178886	3064408.637233570395	32.639239142744
0	178891	3064432.47743675049	23.840203180095
0	178898	3064592.042806665934	16.174122566788
0	178905	3064630.742154043055	18.37018979593
0	178912	3064738.554433020148	26.702872529068
0	178921	3064910.743106487091	15.134091813648
0	178926	3064921.751779837497	11.008673350406
0	178933	3064961.634846060516	5.270735054289
0	178940	3064993.832254255845	20.065654840707
0	178949	3065058.414000463898	8.206621605845
0	178958	3065213.133880529081	154.71988006518
0	178963	3065223.002988541378	9.869108012297
0	178968	3065236.258525651111	13.255537109733
0	178975	3065486.250513164876	45.598625584483
0	178982	3065539.543618201684	20.37573355782
0	178989	3065655.054855157608	95.965736116492
0	178996	3065869.79244949741	48.318160434149
0	179003	3065926.740953608829	24.283961148349
0	179010	3065940.989375402904	0.643053699845
0	179017	3066083.262588125059	19.880446944711
0	179024	3066136.996811194577	8.465378539447
0	179031	3066203.746149568464	3.394236548354
0	179040	3066249.285559184808	20.31938687726
0	179045	3066336.222602384029	86.937043199221
0	179054	3066407.606348264441	65.034825740671
0	179059	3066436.02306723706	28.416718972619
0	179066	3066573.941903034573	2.574145764943
0	179073	3066745.034879014693	5.601660860871
0	179086	3066920.864737816637	51.66245603042
0	179091	3066969.771800915818	48.907063099181
0	179096	3066976.089810902948	6.31800998713
0	179107	3067005.471402015323	29.381591112375
0	179112	3067073.672331642577	68.200929627254
0	179117	3067106.074250192735	32.401918550158
0	179122	3067129.731375728957	23.657125536222
0	179129	3067164.686371523183	9.40892919795
0	179140	3067261.40019881168	90.012064701707
0	179145	3067295.998144155325	34.597945343645
0	179150	3067351.029832813743	55.031688658418
0	179157	3067423.022844376393	8.228960924874
0	179164	3067505.592317592105	46.622346515128
0	179171	3067537.150645079813	18.37380240471
0	179178	3067601.676970917242	2.896193274048
0	179185	3068090.291122378133	16.966938168286
0	179192	3068107.997811050685	7.432172687097
0	179208	3068435.438144867428	102.22264722934
0	179215	3068896.662826864519	1.726340477275
0	179222	3069489.896026138434	28.73869171511
0	179231	3069618.590798688886	62.953168438319
0	179236	3069655.451800035897	36.861001347011
0	179243	3069691.710684295689	2.076760950214
0	179250	3069857.78044040708	41.48118392935
0	179257	3069881.408898030416	10.726930442725
0	179264	3069956.038347885459	3.858235434044
0	179271	3070027.850013406787	5.333223040133
0	179278	3070222.783375338508	52.693880762257
0	179287	3070512.015303885041	233.69637157754
0	179292	3070533.271811546678	21.256507661637
0	179299	3070748.321562656206	42.249766605624
0	179306	3070893.922443331782	19.937121365392
0	179313	3070957.48193873798	18.943598666808
0	179320	3071303.894224317651	16.628382699484
0	179327	3071340.826852771898	18.789846008572
0	179338	3071631.026560592323	126.13550349382
0	179347	3071882.298720766459	251.27216017414
0	179352	3071896.096564648664	13.797843882205
0	179357	3071910.531223280661	14.434658631997
0	179362	3071929.381533241184	18.850309960523
0	179369	3072049.778236495795	8.738482195126
0	179376	3072084.918727422362	32.944772591447
0	179383	3072148.972593800748	32.487351771052
0	179392	3072392.773228415094	35.321718190269
0	179397	3072414.235465503519	21.462237088425
0	179404	3072497.83917703918	4.838473008738
0	179413	3072630.009823896493	71.899044409629
0	179418	3072635.905164087739	5.895340191246
0	179425	3072855.866836682808	56.446132111132
0	179436	3073033.139845080953	118.16955094434
0	179441	3073069.382641782923	36.24279670197
0	179446	3073089.999475190832	20.616833407909
0	179453	3073211.583586456157	6.04496022177
0	179460	3073264.620588651489	26.598018830362
0	179469	3073342.085967580542	52.368005986167
0	179474	3073348.541500008359	6.455532427817
0	179481	3073514.349803432667	57.416696358965
0	179490	3073808.33219670728	34.238894918608
0	179495	3073814.957598174631	6.625401467351
0	179502	3073946.685023982581	79.211799581065
0	179509	3074138.189779307251	10.026068642004
0	179518	3074299.404666872441	115.29046745102
0	179523	3074373.620390781943	74.215723909502
0	179530	3074423.345669716544	14.788815843545
0	179537	3074492.649855387856	39.960236194031
0	179548	3074647.783116098096	70.928828069995
0	179553	3074672.800452720801	25.017336622705
0	179560	3074721.550086924414	48.749634203613
0	179567	3075005.736600070915	284.1865131465
0	179572	3075027.517079714752	21.780479643837
0	179581	3075314.694532624939	52.415120950747
0	179586	3075377.98558768956	63.291055064621
0	179595	3075648.632197191312	20.550659924796
0	179600	3075760.252637283267	111.62044009196
0	179607	3075934.430338376499	5.46283598433
0	179614	3076369.136203967145	69.317775768355
0	179621	3076436.6235836801	23.143059515376
0	179628	3076540.296055855799	11.651618946303
0	179637	3076675.382680369097	5.529790434435
0	179644	3076752.843355551345	77.460675182248
0	179649	3076821.455702190025	68.61234663868
0	179658	3076841.728346109534	19.36361573175
0	179663	3076855.49333815574	13.764992046206
0	179733	3078761.000519885652	74.701995043139
0	179738	3078784.807221225666	23.806701340014
0	179747	3078814.668743202139	29.861521976473
0	179754	3079085.528373148423	23.555217884533
0	179761	3079203.443694654888	27.915516994879
0	179768	3079403.563152349423	48.097466515363
0	179780	3079859.99631812619	46.786465061778
0	179787	3079945.075175502408	7.653532665529
0	179800	3080226.701136700975	69.202758003755
0	179805	3080235.572969771317	8.871833070342
0	179812	3080460.992098998743	89.191868574017
0	179821	3080792.293543331363	101.54787350219
0	179826	3080801.800753923687	9.507210592324
0	179833	3080917.364882368697	30.04754956507
0	179885	3082135.240653631145	40.090113399089
0	179890	3082173.586255272302	38.345601641157
0	179895	3082190.134199386154	16.547944113852
0	179900	3082209.625476069492	19.491276683338
0	179907	3082246.178334725794	36.552858656302
0	179914	3082303.490012518436	57.311677792642
0	179921	3082419.060392508797	115.57037999036
0	179928	3082452.991712636481	33.931320127684
0	179933	3082500.205838298993	47.214125662512
0	179938	3082571.442293544019	71.236455245026
0	179943	3082586.83409541417	15.391801870151
0	179948	3082608.180458390345	21.346362976175
0	179955	3082770.830724212192	10.609571848198
0	179964	3082907.652013450118	116.37753728143
0	179973	3082950.805522620254	43.153509170136
0	179978	3082959.003591499572	8.198068879318
0	179989	3083100.264547406403	141.26095590683
0	179996	3083131.553347460862	31.288800054459
0	180001	3083137.567924429485	6.014576968623