version 2
run Simulations-28-20191218-11:09:17-65753
attr configname Simulations
attr datetime 20191218-11:09:17
attr experiment Simulations
attr inifile omnetpp.ini
attr iterationvars "$seed=25, $0=2400"
attr iterationvarsf seed=25,2400-
attr measurement "$seed=25, $0=2400"
attr network WifiCelNetPassiveQueue
attr processid 65753
attr repetition 0
attr replication #0
attr resultdir results/Simulations/omnet
attr runnumber 28
attr seedset 25
itervar seed 25
param **.numJobs 10000
param *.OFFLOAD.deadline exponential(2400s)
param *.source.interArrivalTime exponential(120s)
param *.WIFI.serviceTime exponential(40s)
param *.CELL.serviceTime exponential(400s)
param *.OFFLOAD.switchToWi exponential(1524s)
param *.OFFLOAD.switchToCel exponential(3120s)
param *.LOCAL.serviceTime exponential(5s)
param *.REMOTE.serviceTime exponential(1s)

vector 0 WifiCelNetPassiveQueue.WIFI serviceTime:vector ETV
attr interpolationmode none
attr title "wifi Service, vector"
attr unit s
vector 1 WifiCelNetPassiveQueue.WIFI responseTime:vector ETV
attr interpolationmode none
attr title "Response Time, vector"
attr unit s
vector 2 WifiCelNetPassiveQueue.REMOTE serviceTime:vector ETV
attr interpolationmode none
attr title "wifi Service, vector"
attr unit s
vector 3 WifiCelNetPassiveQueue.REMOTE responseTime:vector ETV
attr interpolationmode none
attr title "Response Time, vector"
attr unit s
vector 4 WifiCelNetPassiveQueue.sink lifeTime:vector ETV
attr interpolationmode none
attr title "lifetime of arrived jobs, vector"
attr unit s
vector 5 WifiCelNetPassiveQueue.OFFLOAD queueLength:vector ETV
attr interpolationmode sample-hold
attr title "queue length, vector"
vector 6 WifiCelNetPassiveQueue.OFFLOAD storeCelTime:vector ETV
attr interpolationmode none
attr title "Time in Cell, vector"
attr unit s
vector 7 WifiCelNetPassiveQueue.OFFLOAD storeDeadline:vector ETV
attr interpolationmode none
attr title "deadline, vector"
attr unit s
vector 8 WifiCelNetPassiveQueue.CELL serviceTime:vector ETV
attr interpolationmode none
attr title "wifi Service, vector"
attr unit s
vector 9 WifiCelNetPassiveQueue.CELL responseTime:vector ETV
attr interpolationmode none
attr title "Response Time, vector"
attr unit s
vector 10 WifiCelNetPassiveQueue.OFFLOAD storeWifiTime:vector ETV
attr interpolationmode none
attr title "Time in Wifi, vector"
attr unit s
vector 11 WifiCelNetPassiveQueue.LOCAL serviceTime:vector ETV
attr interpolationmode none
attr title "wifi Service, vector"
attr unit s
vector 12 WifiCelNetPassiveQueue.LOCAL responseTime:vector ETV
attr interpolationmode none
attr title "Response Time, vector"
attr unit s
vector 13 WifiCelNetPassiveQueue.REMOTE queueLength:vector ETV
attr interpolationmode sample-hold
attr title "queue length, vector"
vector 14 WifiCelNetPassiveQueue.LOCAL queueLength:vector ETV
attr interpolationmode sample-hold
attr title "queue length, vector"
0	173670	3000099.876854331278	44.307387616392
0	173679	3000167.818032083929	34.096585209924
0	173686	3000276.588605216928	108.770573133
0	173691	3000359.904434484003	83.315829267075
0	173736	3001686.19196549812	71.626692443195
0	173741	3001698.40733215826	12.21536666014
0	173748	3001729.910946845956	31.503614687696
0	173753	3001768.264512599591	38.353565753635
0	173758	3001817.942944012026	49.678431412435
0	173765	3001856.295216995726	38.3522729837
0	173770	3001885.586630950104	29.291413954378
0	173775	3001919.39243698086	33.805806030756
0	173780	3001926.474817370599	7.082380389739
0	173787	3001952.981449352096	10.626516112657
0	173794	3002049.789196659729	26.114920551819
0	173805	3002109.399044675757	47.345299634766
0	173810	3002191.274153644914	81.875108969157
0	173817	3002239.863128225089	48.588974580175
0	173822	3002242.253722354546	2.390594129457
0	173829	3002254.677304595015	3.214018447603
0	173836	3002508.603059377005	8.328604648477
0	173843	3002675.594857937419	60.578074066695
0	173850	3002774.004240115887	6.535280573087
0	173861	3002891.257968492685	41.264243561194
0	173868	3003097.53804674319	18.496510333863
0	173875	3003335.568293161872	134.93973368455
0	173884	3003477.632092856554	17.499835599039
0	173889	3003489.084074378275	11.451981521721
0	173896	3003605.520234535234	100.4364565245
0	173903	3003611.279210507463	0.275474819878
0	173910	3003917.698540738431	1.050005494102
0	173917	3003950.500206030992	7.386139154719
0	173924	3004033.904904044404	10.602404332796
0	173931	3004224.420448487854	4.879276335813
0	173938	3004327.809472271062	7.469083051213
0	173945	3004613.734599717874	44.780595383978
0	173952	3004770.678059530165	100.42498442011
0	173959	3004816.499561589609	32.38967469016
0	173966	3004911.712674396622	88.71498191241
0	173979	3005430.156877901028	140.96263701734
0	173984	3005432.430925304967	2.274047403939
0	173989	3005518.715799481782	86.284874176815
0	173998	3005577.638687868134	58.922888386352
0	174003	3005632.15366262758	54.514974759446
0	174008	3005662.993182563477	30.839519935897
0	174017	3005813.46461005302	85.912269501169
0	174022	3005836.6701599904	23.20554993738
0	174029	3005883.643685956646	12.061851850481
0	174038	3005985.271695311922	11.66294332466
0	174045	3006032.654218583501	47.382523271579
0	174050	3006038.262389317054	5.608170733553
0	174057	3006123.82525029032	70.77451190878
0	174066	3006224.398889247297	77.809660103875
0	174071	3006236.480687397099	12.081798149802
0	174078	3006286.39208161772	13.020756378122
0	174093	3006625.746930698088	284.40006014314
0	174098	3006679.040528571125	53.293597873037
0	174103	3006738.215529601822	59.175001030697
0	174108	3006805.117701897394	66.902172295572
0	174115	3006888.483855165273	83.366153267879
0	174120	3006925.644527801481	37.160672636208
0	174127	3007019.840988243149	3.973480851948
0	174134	3007100.710556470118	12.808480444166
0	174141	3007374.284360507508	43.671076154237
0	174152	3007805.381133917671	247.21174621893
0	174157	3007833.465274665657	28.084140747986
0	174162	3007839.669032887194	6.203758221537
0	174169	3008143.899101727313	59.833683349157
0	174176	3008652.982215018083	103.20801589515
0	174183	3008676.670711686176	2.74445579083
0	174190	3009507.811789857261	33.504825128386
0	174197	3009784.553253625692	30.383245577999
0	174204	3009806.202636504508	9.410901675482
0	174211	3009983.297387504822	64.804949642226
0	174220	3010096.722393606196	83.39335450927
0	174229	3010304.622616800466	207.90022319427
0	174234	3010343.811964565899	39.189347765433
0	174239	3010444.968254918226	101.15629035233
0	174246	3010492.571334762941	30.451041754937
0	174253	3010504.301619836713	3.927055555418
0	174260	3010566.769389936958	33.096428551791
0	174267	3010592.222067071872	1.405580574188
0	174274	3010711.950334833453	118.84862584311
0	174281	3010768.87940203324	55.910803149952
0	174288	3010983.221304841489	1.184280581008
0	174295	3011170.720466032988	20.930841725553
0	174302	3011287.12368380722	62.449944614256
0	174313	3011563.208249323469	140.14145525661
0	174318	3011566.735151676967	3.526902353498
0	174325	3011640.743100340704	13.295084772447
0	174332	3011654.203555896426	8.406255248215
0	174339	3011788.537531243436	6.025435717
0	174346	3011867.115153046382	24.104832656063
0	174353	3011966.8440647565	97.208217891271
0	174360	3012111.792605618766	23.683429227073
0	174369	3012156.401719194388	43.046325236233
0	174376	3012222.574150644547	66.172431450159
0	174381	3012234.732991695879	12.158841051332
0	174642	3017105.605333888531	103.11410359285
0	174647	3017114.151104535947	8.545770647416
0	174652	3017161.469022131939	47.317917595992
0	174657	3017183.312543031334	21.843520899395
0	174670	3017246.957632265192	63.645089233858
0	174675	3017299.047778334223	52.090146069031
0	174680	3017355.708114523731	56.660336189508
0	174685	3017364.310818815586	8.602704291855
0	174688	3017364.421539730772	0.110720915186
0	174697	3017449.744174994497	85.322635263725
0	174702	3017559.667807180095	109.9236321856
0	174707	3017569.038501842899	9.370694662804
0	174712	3017570.856318117548	1.817816274649
0	174717	3017579.697526373089	8.841208255541
0	174722	3017583.086576379622	3.389050006533
0	174729	3017669.674873962489	86.588297582867
0	174734	3017684.304257274555	14.629383312066
0	174741	3017720.937989867979	36.633732593424
0	174748	3017758.01570138743	37.077711519451
0	174753	3017791.459912149499	33.444210762069
0	174760	3017858.818370959647	67.358458810148
0	174765	3017871.449574856502	12.631203896855
0	174770	3017938.344944254293	66.895369397791
0	174777	3017983.921693833381	45.576749579088
0	174786	3018071.944555484358	88.022861650977
0	174791	3018089.151093204453	17.206537720095
0	174796	3018090.764807274034	1.613714069581
0	174801	3018111.111301720305	20.346494446271
0	174808	3018193.266296073468	13.800417961033
0	174815	3018484.587046163089	22.309373575678
0	174958	3022601.833040116795	134.52285137452
0	174963	3022604.034303041865	2.20126292507
0	174968	3022629.577940860516	25.543637818651
0	174973	3022650.606870622451	21.028929761935
0	174980	3022689.020421203862	38.413550581411
0	174991	3022744.574295083641	55.553873879779
0	175000	3022807.38627548588	62.811980402239
0	175005	3022811.623169426407	4.236893940527
0	175010	3022819.910037313853	8.286867887446
0	175015	3022822.461295405661	2.551258091808
0	175031	3023063.483139958419	241.02184455276
0	175038	3023193.081346414108	129.59820645569
0	175043	3023199.870670013561	6.789323599453
0	175048	3023205.276756172286	5.406086158725
0	175053	3023222.825232792503	17.548476620217
0	175059	3023250.486781428242	27.661548635739
0	175064	3023306.768701773971	56.281920345729
0	175071	3023383.257269041888	76.488567267917
0	175076	3023393.348709924755	10.091440882867
0	175081	3023516.773893081024	123.42518315627
0	175090	3023583.311968048289	66.538074967265
0	175095	3023583.697495080837	0.385527032548
0	175100	3023585.914352564987	2.21685748415
0	175105	3023604.846797165832	18.932444600845
0	175112	3023621.755698936433	16.908901770601
0	175117	3023687.352045721009	65.596346784576
0	175122	3023711.851521464188	24.499475743179
0	175127	3023761.782236797133	49.930715332945
0	175130	3023762.171272024213	0.38903522708
0	175137	3023786.574399299805	24.403127275592
0	175144	3023879.561878116358	92.987478816553
0	175149	3023895.763630063101	16.201751946743
0	175156	3023933.742246163484	37.978616100383
0	175163	3024005.061514910586	71.319268747102
0	175170	3024109.936103648394	104.87458873781
0	175175	3024117.659476359782	7.723372711388
0	175180	3024126.286297602973	8.626821243191
0	175187	3024194.0019028753	0.535394641182
0	175194	3024222.764629842626	12.447995012547
0	175203	3024730.913700788185	7.290678782248
0	175305	3027263.030934135236	58.13039075367
0	175310	3027314.735416906768	51.704482771532
0	175315	3027343.473462641163	28.738045734395
0	175324	3027404.485334627692	61.011871986529
0	175329	3027411.880233287135	7.394898659443
0	175334	3027412.214486788999	0.334253501864
0	175343	3027455.765282069632	43.550795280633
0	175348	3027461.274457025773	5.509174956141
0	175355	3027474.230082926306	12.955625900533
0	175381	3028236.289421908499	21.530499123578
0	175388	3028299.424717396663	63.135295488164
0	175395	3028322.096262899435	22.671545502772
0	175400	3028366.135243741504	44.038980842069
0	175405	3028369.703598953337	3.568355211833
0	175410	3028468.994548454158	99.290949500821
0	175415	3028565.261242835766	96.266694381608
0	175420	3028610.155039764277	44.893796928511
0	175425	3028612.917495808899	2.762456044622
0	175430	3028615.536964833694	2.619469024795
0	175441	3028750.152884664908	74.037279531347
0	175448	3028988.088489262203	1.787555240152
0	175457	3029102.548257147932	78.863481525571
0	175462	3029120.362045468791	17.813788320859
0	175469	3029182.534383840385	32.143176716947
0	175476	3029273.471880496037	26.974364181229
0	175483	3029456.666511639803	41.046295742917
0	175490	3029551.750468120849	1.33770799788
0	175497	3029576.181577754944	8.74017724712
0	175504	3029782.396875922178	57.26295326636
0	175511	3029872.736265772105	29.77516980431
0	175518	3029914.972428288338	9.254847925288
0	175525	3030124.604694562835	22.635090754901
0	175532	3030211.712232425724	41.581563164166
0	175539	3030239.197647305256	22.807982279776
0	175546	3030325.870991963513	78.566637645213
0	175553	3030468.344049737048	24.152396530826
0	175562	3030570.200949907671	7.648552614944
0	175567	3030572.376270126803	2.175320219132
0	175574	3030587.228216016128	14.426150613756
0	175581	3030755.787282677038	13.881084487464
0	175588	3030837.405905270324	10.93772001215
0	175595	3030951.354821782093	2.941999220393
0	175604	3031068.310067916009	39.019944860208
0	175609	3031069.707724314009	1.397656398
0	175618	3031344.234926215822	1.850367160723
0	175623	3031360.720992227676	16.486066011854
0	175630	3031624.595601225132	154.37376153543
0	175641	3031803.640368120718	134.56416220753
0	175646	3031821.710447411735	18.070079291017
0	175651	3031888.585052628728	66.874605216993
0	175660	3032039.194868922199	86.37415086628
0	175667	3032092.894305273067	53.699436350868
0	175676	3032157.727535905282	64.833230632215
0	175683	3032191.422786769451	33.695250864169
0	175688	3032217.712947165646	26.290160396195
0	175693	3032261.01813480623	43.305187640584
0	175702	3032530.288533152465	40.509625871445
0	175707	3032581.249797723814	50.961264571349
0	175714	3032632.421494141224	1.249889529713
0	175721	3032735.950858422703	13.963974270788
0	175730	3032743.393914689341	6.702877934356
0	175735	3032755.697913240559	12.303998551218
0	175746	3033117.755725648053	193.14261179813
0	175753	3033141.343617543504	23.587891895451
0	175758	3033143.080980172057	1.737362628553
0	175763	3033152.588110690928	9.507130518871
0	175770	3033178.433781636616	19.130482790948
0	175821	3034634.737153705635	6.835740302242
0	175826	3034694.545459254745	59.80830554911
0	175837	3034805.032443071391	110.48698381665
0	175844	3034845.752830010329	40.720386938938
0	175849	3034898.33837358038	52.585543570051
0	175854	3034916.813518217092	18.475144636712
0	175865	3035133.029688276528	24.332589147062
0	175870	3035136.197949378999	3.168261102471
0	175875	3035144.585193793273	8.387244414274
0	175884	3035458.296489926061	134.47779969463
0	175891	3035506.836866802509	48.540376876448
0	175896	3035538.216152191164	31.379285388655
0	175903	3035614.784477478356	22.162279694593
0	175910	3035724.686555364171	6.400458493394
0	175917	3035907.53893014478	33.640857905672
0	175924	3035950.308529190241	4.422039469974
0	175931	3036137.551037248343	6.716697754474
0	175940	3036890.115726068881	168.09084813512
0	175945	3036951.266839575445	61.151113506564
0	175952	3037291.707468387601	2.080766304065
0	175959	3037393.19753735422	46.220845964598
0	175966	3037458.351436834962	16.049329777044
0	175975	3037712.332924494312	155.73463176416
0	175980	3037721.242891433052	8.90996693874
0	175987	3037863.134203316815	33.584373145856
0	175994	3037941.064114190303	11.625457152357
0	176001	3038017.295259630975	43.188299760888
0	176016	3038138.13366310039	51.410575669661
0	176023	3038191.22857631434	53.09491321395
0	176028	3038220.399038257878	29.170461943538
0	176035	3038253.957034328227	33.557996070349
0	176040	3038266.399226649675	12.442192321448
0	176045	3038293.405471063701	27.006244414026
0	176050	3038309.825038658176	16.419567594475
0	176057	3038533.049610242123	9.793805848236
0	176064	3038602.586714653375	42.014250930363
0	176145	3039687.652837101711	33.46707092161
0	176150	3039710.989902275451	23.33706517374
0	176155	3039732.441268921435	21.451366645984
0	176166	3040057.585245382501	325.14397646107
0	176171	3040096.0442027381	38.458957355599
0	176176	3040175.534885539369	79.490682801269
0	176181	3040223.174124952128	47.639239412759
0	176188	3040229.086113793827	5.911988841699
0	176193	3040236.294347761018	7.208233967191
0	176196	3040236.731497314543	0.437149553525
0	176204	3040264.164018184978	27.432520870435
0	176239	3040810.607943234186	18.532491110843
0	176244	3040839.41271578311	28.804772548924
0	176249	3040853.210973468192	13.798257685082
0	176256	3040982.266507635143	4.40575062498
0	176263	3041014.774770585379	24.556406921734
0	176270	3041047.90152099468	25.409495083269
0	176277	3041113.928477103052	31.264797091286
0	176284	3041141.928465780714	2.715938129841
0	176295	3041411.053121724747	26.960544161375
0	176302	3041664.355630097035	63.058991382674
0	176309	3041796.697910721355	56.332007744241
0	176318	3041915.004549732024	98.18842862098
0	176323	3041918.494819961127	3.490270229103
0	176330	3041997.721142287168	4.047984625858
0	176337	3042022.357793136443	12.351077742538
0	176350	3042254.51740055693	156.1800531662
0	176355	3042258.826205852334	4.308805295404
0	176360	3042260.104322810702	1.278116958368
0	176365	3042281.994265293715	21.889942483013
0	176372	3042314.397718374312	21.024419670377
0	176379	3042438.184065492413	17.367297976756
0	176388	3042465.207775609995	20.608325794389
0	176393	3042476.380711365367	11.172935755372
0	176400	3042677.480330195247	158.9955615512
0	176409	3042789.095785856516	45.586643186256
0	176414	3042795.951448149622	6.855662293106
0	176423	3042906.310720505943	95.487907252349
0	176428	3042934.508002263662	28.197281757719
0	176435	3043051.14252589228	45.291305266964
0	176442	3043097.27964632402	5.707945230487
0	176449	3043102.93452513725	4.467701521842
0	176456	3043232.81016200163	10.56400637201
0	176463	3043435.372052206115	48.526492469105
0	176470	3043630.461531016768	58.366998292661
0	176479	3043749.234896872034	45.949264009224
0	176484	3043774.514246029553	25.279349157519
0	176491	3043842.934320343642	23.850522662747
0	176630	3047172.329165069955	28.846833110262
0	176635	3047289.630431588469	117.30126651851
0	176640	3047320.798820972465	31.168389383996
0	176651	3047370.064346691793	49.265525719328
0	176656	3047387.150647357655	17.086300665862
0	176665	3047532.25720450526	145.10655714761
0	176670	3047547.173150960101	14.915946454841
0	176675	3047551.912619545803	4.739468585702
0	176680	3047557.498146532542	5.585526986739
0	176687	3047650.626258788786	93.128112256244
0	176692	3047704.676594938303	54.050336149517
0	176699	3047895.755913125372	34.653610493453
0	176706	3048216.952623820392	7.224232003192
0	176713	3048519.397569115655	5.041682119734
0	176720	3048719.418322053781	86.316578393336
0	176727	3048783.971096843545	2.021434302506
0	176734	3048851.061897234456	8.339358117368
0	176741	3048930.022281546395	3.244750083205
0	176748	3049002.408817393148	41.797724467935
0	176757	3049086.67322772292	45.801073346352
0	176762	3049179.030532399141	92.357304676221
0	176769	3049298.822845262399	14.328879594093
0	176778	3049396.904119261697	25.350109486407
0	176783	3049449.596403860149	52.692284598452
0	176792	3049517.596739883843	19.1067354412
0	176797	3049554.212771563392	36.616031679549
0	176804	3049682.350394218703	115.75428345945
0	176811	3049743.307336341133	12.824471465044
0	176818	3049759.290936709554	13.724022058129
0	176825	3049828.638440532817	4.834094012794
0	176832	3049865.463896382347	26.675584340738
0	176839	3049958.291918534888	6.821349847251
0	176846	3049984.489984737567	0.920372024861
0	176857	3050142.598441445432	77.130469086136
0	176864	3050239.149582128581	96.551140683149
0	176873	3050327.45822658697	88.308644458389
0	176878	3050336.199723770406	8.741497183436
0	176883	3050378.326406672042	42.126682901636
0	176888	3050493.972176102059	115.64576943002
0	176895	3050574.508351869824	16.169991592032
0	176902	3050595.083883722125	7.116825416366
0	176909	3050944.205603257612	170.94397417204
0	176983	3052473.511438594543	103.61268344811
0	176992	3052571.068245657143	97.5568070626
0	176997	3052611.543365762739	40.475120105596
0	177002	3052630.983754850887	19.440389088148
0	177009	3052772.870157000688	141.8864021498
0	177020	3052816.85520664978	43.985049649092
0	177025	3052855.585185187392	38.729978537612
0	177030	3052862.540885097125	6.955699909733
0	177035	3052871.26140237686	8.720517279735
0	177040	3052875.172344982056	3.910942605196
0	177047	3052980.216265416232	80.350358333036
0	177058	3053151.419745194643	71.342340657712
0	177063	3053242.616859823527	91.197114628884
0	177068	3053327.556189375037	84.93932955151
0	177075	3053477.822622024896	29.234818639455
0	177082	3053541.405473214155	16.371981602586
0	177089	3053620.589253698977	12.772329411616
0	177098	3053773.991003348919	21.588521929094
0	177103	3053780.707262909507	6.716259560588
0	177110	3053849.83368486907	38.491802917116
0	177119	3054093.269511158081	20.284768147509
0	177124	3054120.143122427039	26.873611268958
0	177131	3054130.894285429387	2.444910215593
0	177138	3054179.183991654627	5.227753866608
0	177145	3054456.152361143664	11.399414798369
0	177152	3054591.273679096578	7.501085119253
0	177159	3054708.430316534218	7.950547856907
0	177168	3054855.925048550915	77.27119109964
0	177173	3054860.090481500487	4.165432949572
0	177184	3054985.933903014416	102.59694855293
0	177189	3055018.622423267867	32.688520253451
0	177194	3055032.93779213152	14.315368863653
0	177201	3055136.400715483869	35.432593232877
0	177208	3055173.915888399662	23.595383906177
0	177215	3055202.167274032014	11.369532725907
0	177222	3055346.388442097981	35.983133863566
0	177229	3055542.284044476044	12.617325939043
0	177238	3055798.499373974805	65.637323437266
0	177243	3055812.495012441158	13.995638466353
0	177252	3055878.692348211693	20.737647473039
0	177257	3055907.891566612614	29.199218400921
0	177266	3056043.381580306288	42.244114118267
0	177271	3056118.488236432629	75.106656126341
0	177310	3056775.051213968862	3.46212793124
0	177315	3056828.62772974066	53.576515771798
0	177324	3056948.644436742137	120.01670700148
0	177329	3056960.405046720791	11.760609978654
0	177334	3056982.740541869715	22.335495148924
0	177339	3056993.300423183036	10.559881313321
0	177344	3057018.219629468975	24.919206285939
0	177349	3057099.649598879474	81.429969410499
0	177354	3057117.360803363064	17.71120448359
0	177359	3057177.016212010868	59.655408647804
0	177366	3057262.997541708498	31.219397775018
0	177379	3057328.453890645268	56.163797915259
0	177384	3057365.607261963559	37.153371318291
0	177391	3057410.67064195971	17.748067358969
0	177398	3057632.536573611375	3.68740914447
0	177407	3057834.062224463966	104.38967947374
0	177412	3057840.053641857412	5.991417393446
0	177437	3058294.592160172463	8.300991967133
0	177442	3058296.460587096492	1.868426924029
0	177449	3058310.630066070684	14.169478974192
0	177458	3058327.080053510324	16.44998743964
0	177463	3058373.658152035968	46.578098525644
0	177468	3058380.890086013643	7.231933977675
0	177473	3058409.721179876062	28.831093862419
0	177480	3058417.143953418549	6.785935107993
0	177487	3058501.421724453907	31.055098707653
0	177494	3058602.749332244937	3.421416714069
0	177505	3058710.572191049587	43.40902142206
0	177510	3058733.225499610823	22.653308561236
0	177515	3058736.425151324785	3.199651713962
0	177522	3058797.956497019955	10.950256511212
0	177529	3058951.716335901599	20.975123516795
0	177536	3058977.591190375628	20.038097515867
0	177548	3059201.233085836414	65.17776966618
0	177690	3062932.877223243071	57.793905067747
0	177695	3062944.33325641708	11.456033174009
0	177700	3062957.774577235311	13.441320818231
0	177715	3063100.876152887277	143.10157565197
0	177720	3063116.339770341829	15.463617454552
0	177725	3063191.898643783057	75.558873441228
0	177730	3063231.879530024443	39.980886241386
0	177735	3063248.97080139703	17.091271372587
0	177740	3063409.997185316495	161.02638391946
0	177745	3063421.777282464189	11.780097147694
0	177752	3063677.901045011933	256.12376254774
0	177763	3063754.684018802253	76.78297379032
0	177768	3063772.381187822389	17.697169020136
0	177775	3063894.678604891144	122.29741706875
0	177780	3063953.32578130427	58.647176413126
0	177785	3063979.798126602776	26.472345298506
0	177792	3064007.015359310831	27.217232708055
0	177799	3064049.040688720951	42.02532941012
0	177804	3064066.541749588621	17.50106086767
0	177811	3064117.25210922802	10.31642651501
0	177818	3064220.109388194891	0.816730485248
0	177951	3067479.610867742385	57.971655223423
0	177956	3067508.788686181962	29.177818439577
0	177961	3067549.461825493751	40.673139311789
0	177966	3067597.396779192551	47.9349536988
0	177979	3067787.232116117152	143.2969010225
0	177984	3067795.056741192503	7.824625075351
0	177991	3068029.012071287481	33.89088624858
0	177998	3068044.621982249447	13.191381568207
0	178007	3068404.443444387638	6.10312242813
0	178014	3068478.19304004768	73.749595660042
0	178019	3068556.630867312922	78.437827265242
0	178026	3068608.213493323791	32.687002747665
0	178033	3069014.094504142358	22.122542941212
0	178040	3069067.86270563923	0.18191930468
0	178047	3069165.451138461648	16.163152925721
0	178054	3069433.364352748683	41.334930779004
0	178061	3069822.017121984713	63.323889395875
0	178068	3070163.716167406879	3.142024703633
0	178075	3070370.021747861296	30.713137437712
0	178082	3070414.975776484746	9.285995674269
0	178089	3070493.188676004731	68.44133273668
0	178098	3070683.215151755764	74.298544735455
0	178103	3070712.588561404302	29.373409648538
0	178110	3070995.445918024935	21.845757877513
0	178118	3071134.122974163131	44.47346418306
0	178140	3071567.722676367817	14.665612601712
0	178145	3071583.694166078921	15.971489711104
0	178150	3071593.445121789602	9.750955710681
0	178157	3071625.988118939947	29.583040894536
0	178164	3071739.790523289091	32.257985648408
0	178175	3072083.116908074126	31.818674511622
0	178182	3072137.541572777352	34.45437223049
0	178189	3072182.521119216109	14.832254809724
0	178196	3072306.753622088882	60.580209407004
0	178203	3072450.17683336683	13.782871921126
0	178210	3072594.197290349755	62.833843315869
0	178217	3072710.564368402418	2.212344711403
0	178224	3072958.913575993538	11.356446840618
0	178233	3073078.009637289116	27.053231719216
0	178238	3073089.954546805166	11.94490951605
0	178245	3073345.423559560599	51.486933409919
0	178252	3073439.10023547685	1.157470122698
0	178267	3073539.638432783144	69.469122313551
0	178274	3073577.255655808189	37.617223025045
0	178281	3073617.263490342318	40.007834534129
0	178286	3073633.246151464298	15.98266112198
0	178291	3073650.446168151811	17.200016687513
0	178296	3073669.282725424501	18.83655727269
0	178303	3073716.063954763854	46.781229339353
0	178308	3073717.253902909295	1.189948145441
0	178315	3073800.975151130164	55.052390778776
0	178322	3073870.105418995739	45.135671407517
0	178329	3074061.822006810039	18.643783174484
0	178336	3074274.327132594638	9.96785100004
0	178343	3074403.009864362941	128.38229280898
0	178350	3074820.692973896169	78.646715791764
0	178359	3074909.366828597248	49.564482882272
0	178364	3074910.379568011907	1.012739414659
0	178371	3074958.926255493083	14.709356268571
0	178378	3075110.839299303658	4.171140461634
0	178385	3075304.779225353315	34.007773269264
0	178392	3075384.609233556651	1.956967670923
0	178399	3075780.196948137666	43.233505156269
0	178406	3075874.783626333992	2.530814433414
0	178413	3076034.428848130207	65.46710742274
0	178420	3076190.751283003072	8.88981250475
0	178427	3076332.718757690201	59.5250591419
0	178434	3076456.165437402463	48.284067657477
0	178441	3076533.885725980054	0.503437512312
0	178448	3076595.69646342641	20.504235439829
0	178455	3077261.661841017309	12.847776918748
0	178462	3077581.836857125287	19.07175865118
0	178469	3077763.957936819286	105.73882616096
0	178476	3077844.799469073557	58.413647597892
0	178483	3078195.892190485194	99.515693250251
0	178490	3078473.284406508566	31.022552719573
0	178497	3078502.552382029532	22.231584730455
0	178508	3078730.030247460883	95.7832940347
0	178513	3078773.551095487231	43.520848026348
0	178516	3078774.003496475549	0.452400988318
0	178525	3079001.713262353409	122.34311052008
0	178532	3079117.683233246613	82.674848111438
0	178541	3079214.868772263932	52.005600565727
0	178546	3079222.720795089124	7.852022825192
0	178555	3079448.697428432498	90.75165778962
0	178566	3079667.703760214683	219.00633178218
0	178571	3079686.425102361978	18.721342147295
0	178576	3079692.543163531176	6.118061169198
0	178581	3079818.21340130471	125.67023777353
0	178590	3080067.286913149964	83.442718820493
0	178597	3080188.082300406003	120.79538725604
0	178602	3080199.725196475018	11.642896069015
0	178609	3080346.027752883	1.311546689234
0	178616	3080348.445414831611	1.53770883817
0	178623	3080448.647220636043	19.240472697196
0	178630	3080469.342503018733	4.736013526093
0	178637	3080619.075841674873	12.934859507859
0	178644	3080727.682398830187	14.03058406523
0	178651	3080848.752148506691	0.245505391262
0	178658	3081116.802945397961	31.638232544696
0	178667	3081202.720449901542	85.774459999213
0	178674	3081284.738423429523	82.017973527981
0	178679	3081308.019235114899	23.280811685376
0	178686	3081503.368009436192	10.28391501277
0	178693	3081753.998136486885	27.361435123146
0	178700	3081801.204434530825	35.185053116369
0	178707	3081855.277828288092	51.146883577343
0	178714	3081992.410704492278	14.935474722281
0	178721	3082031.610321979818	12.54881718753
0	178728	3082110.32030644221	69.770114402653
0	178735	3082456.340910390483	5.158471418216
0	178742	3082660.595808894206	40.529025364257
0	178751	3082688.253360605429	13.232906637624
0	178756	3082713.852966625474	25.599606020045
0	178763	3082739.886287697679	4.987939005721
0	178770	3082777.85268994186	6.674434313416
0	178779	3082953.605073354396	86.149765241846
0	178784	3083026.339353935859	72.734280581463
0	178791	3083158.497745360013	39.998869599636
0	178798	3083381.87973881641	76.346667090529
0	178805	3083752.588328933755	12.132041015466
0	178812	3084059.305827816392	3.507647601156
0	178823	3084234.53301837415	24.038270168595
0	178828	3084255.23272659551	20.69970822136
0	178833	3084270.115754344355	14.883027748845
0	178842	3084305.798892473954	17.970130986664
0	178847	3084322.137284339173	16.338391865219
0	178856	3084414.34509715264	17.645678310284
0	178859	3084417.294316052319	2.949218899679
0	178868	3084554.113724202704	89.780894875858
0	178875	3084953.486706656517	7.198491175598
0	178883	3085543.577601836872	35.043775931616
0	179066	3090254.117093618803	10.171590801392
0	179072	3090323.405368054109	69.288274435306
0	179077	3090330.767720093563	7.362352039454
0	179082	3090354.32150834887	23.553788255307