version 2
run Simulations-0-20191218-11:09:11-65753
attr configname Simulations
attr datetime 20191218-11:09:11
attr experiment Simulations
attr inifile omnetpp.ini
attr iterationvars "$seed=7, $0=600"
attr iterationvarsf seed=7,600-
attr measurement "$seed=7, $0=600"
attr network WifiCelNetPassiveQueue
attr processid 65753
attr repetition 0
attr replication #0
attr resultdir results/Simulations/omnet
attr runnumber 0
attr seedset 7
itervar seed 7
param **.numJobs 10000
param *.OFFLOAD.deadline exponential(600s)
param *.source.interArrivalTime exponential(120s)
param *.WIFI.serviceTime exponential(40s)
param *.CELL.serviceTime exponential(400s)
param *.OFFLOAD.switchToWi exponential(1524s)
param *.OFFLOAD.switchToCel exponential(3120s)
param *.LOCAL.serviceTime exponential(5s)
param *.REMOTE.serviceTime exponential(1s)

vector 0 WifiCelNetPassiveQueue.WIFI serviceTime:vector ETV
attr interpolationmode none
attr title "wifi Service, vector"
attr unit s
vector 1 WifiCelNetPassiveQueue.WIFI responseTime:vector ETV
attr interpolationmode none
attr title "Response Time, vector"
attr unit s
vector 2 WifiCelNetPassiveQueue.REMOTE serviceTime:vector ETV
attr interpolationmode none
attr title "wifi Service, vector"
attr unit s
vector 3 WifiCelNetPassiveQueue.REMOTE responseTime:vector ETV
attr interpolationmode none
attr title "Response Time, vector"
attr unit s
vector 4 WifiCelNetPassiveQueue.sink lifeTime:vector ETV
attr interpolationmode none
attr title "lifetime of arrived jobs, vector"
attr unit s
vector 5 WifiCelNetPassiveQueue.OFFLOAD storeCelTime:vector ETV
attr interpolationmode none
attr title "Time in Cell, vector"
attr unit s
vector 6 WifiCelNetPassiveQueue.OFFLOAD queueLength:vector ETV
attr interpolationmode sample-hold
attr title "queue length, vector"
vector 7 WifiCelNetPassiveQueue.OFFLOAD storeDeadline:vector ETV
attr interpolationmode none
attr title "deadline, vector"
attr unit s
vector 8 WifiCelNetPassiveQueue.LOCAL serviceTime:vector ETV
attr interpolationmode none
attr title "wifi Service, vector"
attr unit s
vector 9 WifiCelNetPassiveQueue.LOCAL responseTime:vector ETV
attr interpolationmode none
attr title "Response Time, vector"
attr unit s
vector 10 WifiCelNetPassiveQueue.CELL serviceTime:vector ETV
attr interpolationmode none
attr title "wifi Service, vector"
attr unit s
vector 11 WifiCelNetPassiveQueue.CELL responseTime:vector ETV
attr interpolationmode none
attr title "Response Time, vector"
attr unit s
vector 12 WifiCelNetPassiveQueue.OFFLOAD storeWifiTime:vector ETV
attr interpolationmode none
attr title "Time in Wifi, vector"
attr unit s
vector 13 WifiCelNetPassiveQueue.REMOTE queueLength:vector ETV
attr interpolationmode sample-hold
attr title "queue length, vector"
vector 14 WifiCelNetPassiveQueue.LOCAL queueLength:vector ETV
attr interpolationmode sample-hold
attr title "queue length, vector"
0	172242	3000014.315601045896	7.081007548122
0	172249	3000362.010032914459	37.859931936336
0	172256	3000397.900874232626	2.467828462895
0	172263	3000451.41359192986	16.692272332614
0	172276	3000683.526389543194	154.46303103031
0	172515	3006063.965197037242	2.169558755478
0	172520	3006123.492386649754	59.527189612512
0	172528	3006206.285953131841	82.793566482087
0	172541	3006462.988261668662	256.70230853682
0	172548	3006505.313569552851	42.325307884189
0	172553	3006510.39836601896	5.084796466109
0	172558	3006529.692189945984	19.293823927024
0	172565	3006611.885449546734	82.19325960075
0	172572	3006714.412237203693	102.52678765696
0	172583	3006876.972015477279	162.55977827359
0	172588	3006910.579895983821	33.607880506542
0	172595	3006950.298269024072	39.718373040251
0	172600	3007008.396853083451	58.098584059379
0	172605	3007022.56084729413	14.163994210679
0	172610	3007036.84951385811	14.28866656398
0	172617	3007161.216753684654	124.36723982654
0	172622	3007163.265570273801	2.048816589147
0	172627	3007198.800381566544	35.534811292743
0	172632	3007237.200593353505	38.400211786961
0	172639	3007368.580960162918	25.916104779603
0	172646	3007394.970640781447	14.375321971805
0	172657	3007473.712839635949	68.632366511204
0	172662	3007487.433297382628	13.720457746679
0	172667	3007497.359593346182	9.926295963554
0	172674	3007528.087695733387	9.030320225489
0	172681	3007581.864440034623	10.131349664218
0	172688	3007721.058460589434	21.568592552013
0	172697	3007801.847361599865	56.872625874972
0	172708	3007847.023015899991	45.175654300126
0	172713	3007853.383482672876	6.360466772885
0	172720	3007948.652954297634	24.791078272183
0	172729	3008250.125324083934	93.761842539831
0	172736	3008281.045044117546	30.919720033612
0	172741	3008322.059307764469	41.014263646923
0	172748	3008414.913023476703	16.904180414777
0	172755	3008448.732280012301	29.414359456215
0	172762	3008537.43642506324	9.986125682877
0	172771	3008627.779041727782	80.33233561282
0	172776	3008679.726725199823	51.947683472041
0	172783	3009097.191787861805	26.892106308754
0	172790	3009285.807459541996	37.545354383763
0	172797	3009329.916105922578	27.889859485907
0	172804	3009346.981732450542	8.17877996497
0	172811	3009463.936959023127	5.725075757283
0	172818	3009509.015366285223	21.115658846727
0	172827	3009564.456704712931	18.785025122514
0	172832	3009614.555055711525	50.098350998594
0	172839	3009720.70303160262	0.655368190753
0	172846	3010003.676808085745	12.976033994016
0	172863	3010269.48948050288	155.88842906202
0	172870	3010332.572093482066	63.082612979186
0	172875	3010340.202403412828	7.630309930762
0	172880	3010357.341738930302	17.139335517474
0	172885	3010368.760032981041	11.418294050739
0	172890	3010375.798447091326	7.038414110285
0	172895	3010397.086093748944	21.287646657618
0	172904	3010680.498673486255	171.46403593201
0	172909	3010693.182075786978	12.683402300723
0	172916	3010889.694634773934	9.596787314948
0	172925	3011007.744169189364	93.472904615083
0	172932	3011071.103699527033	63.359530337669
0	172937	3011074.678315215039	3.574615688006
0	172944	3011109.953257421673	16.526822845144
0	172951	3011343.609367131247	55.385652808175
0	172958	3011401.863766489506	27.247164092992
0	172965	3011440.246064112627	15.261177469831
0	172972	3011575.841122719278	8.661203054807
0	172979	3011628.346252874888	9.710530959222
0	172986	3011673.399127058349	0.037041977457
0	172993	3011778.272056965021	20.270064106809
0	173000	3012055.652299117421	123.08382305375
0	173007	3012120.800292839732	40.999461913955
0	173014	3012179.446869120563	5.05659689554
0	173021	3012330.438308597521	34.784765027454
0	173028	3012557.251616403555	11.001645028649
0	173037	3012658.992796264333	27.952298905848
0	173042	3012692.275225934654	33.282429670321
0	173049	3012793.423234239489	37.769285918936
0	173056	3012967.365686914738	7.681905661725
0	173065	3013108.666896598827	53.699880272301
0	173070	3013116.252628306759	7.585731707932
0	173077	3013219.55908872954	29.540671558664
0	173084	3013592.139156779013	103.23645760095
0	173093	3013779.788929029728	107.18433021363
0	173098	3013780.766346003174	0.977416973446
0	173107	3014001.760021250841	36.140357711311
0	173112	3014034.436288940396	32.676267689555
0	173119	3014314.224132711078	19.725641754877
0	173126	3014388.958158902641	30.349581715544
0	173137	3014629.757106347647	57.159427628699
0	173142	3014650.894836960562	21.137730612915
0	173147	3014661.348901113468	10.454064152906
0	173154	3014681.957851581497	17.657925812919
0	173161	3014895.627346736113	24.666958746937
0	173168	3015148.506738225798	21.095011412342
0	173175	3015322.134192960508	7.841852246587
0	173182	3015490.831648824834	112.43618199644
0	173191	3015592.702546665183	53.06360269818
0	173196	3015637.879036522387	45.176489857204
0	173203	3015946.106389059483	23.058998790336
0	173212	3015994.821163645764	37.639112034783
0	173219	3016055.458132996003	60.636969350239
0	173224	3016085.441622766023	29.98348977002
0	173231	3016190.68919248865	3.641267542668
0	173238	3016228.385574250254	0.253053688749
0	173249	3016529.246994054742	146.86284088762
0	173254	3016537.76508458267	8.518090527928
0	173261	3016593.048050783702	55.282966201032
0	173270	3016663.893228615555	70.845177831853
0	173277	3016789.408501769577	125.51527315402
0	173282	3016874.547878071414	85.139376301837
0	173289	3016880.263107681276	5.715229609862
0	173292	3016880.315073552319	0.051965871043
0	173301	3016922.488267173215	31.549978610797
0	173308	3016971.829441259369	36.851960755107
0	173319	3017019.039360816672	44.223841522921
0	173342	3017810.071765865647	88.667567509113
0	173349	3017880.058618010535	69.986852144888
0	173354	3017898.961942976363	18.903324965828
0	173361	3018000.373437614495	12.75002542399
0	173368	3018086.545136724306	49.308304208501
0	173379	3018159.894111473245	4.028526108495
0	173388	3018226.911618773074	29.391856433982
0	173393	3018323.757244396373	96.845625623299
0	173400	3018473.53834182056	90.674706700551
0	173407	3018525.328775088316	26.59174020847
0	173414	3018794.416784868769	94.243095669151
0	173421	3018888.435274131106	4.939348365653
0	173428	3018945.129029668721	0.949194677642
0	173435	3018958.52948980433	7.946124628271
0	173442	3019102.139812104067	60.077274455127
0	173451	3019375.633025846515	86.558868467321
0	173456	3019378.825198275409	3.192172428894
0	173463	3019871.881439525298	49.01476627674
0	173470	3020065.208275057789	105.08424292404
0	173481	3020210.085963606881	144.5814053322
0	173486	3020235.147424271722	25.061460664841
0	173491	3020287.833265057737	52.685840786015
0	173500	3020340.559424677171	12.035448538857
0	173505	3020346.723427175005	6.164002497834
0	173514	3020483.666644805654	52.275398245484
0	173519	3020500.202558473096	16.535913667442
0	173526	3020726.375396006215	40.407508554252
0	173533	3020835.649869887363	17.209743981573
0	173540	3020886.937034594165	18.782126944733
0	173549	3020959.302773578169	45.191273594944
0	173554	3020961.736832442531	2.434058864362
0	173561	3021115.018853971486	5.446820287814
0	173568	3021195.496093029187	70.171123446783
0	173575	3021230.165440466893	8.112125069318
0	173583	3021346.189118618273	99.91014643047
0	173607	3021984.156315923192	7.211467559244
0	173614	3022017.722448343529	3.547024254056
0	173621	3022159.435158938518	3.132748471072
0	173628	3022355.534060379854	12.561776378479
0	173635	3022398.948519428314	31.469609156467
0	173642	3022525.853195536269	35.87928962542
0	173649	3022539.83978853008	6.874051131298
0	173656	3022554.247519704155	6.337272955455
0	173663	3022618.220662385103	57.924278778888
0	173670	3022920.035018958135	18.649534978374
0	173677	3023056.793242159217	23.187558129912
0	173686	3023251.625219192093	62.461681885491
0	173693	3023269.837571102	18.212351909907
0	173698	3023279.203236846521	9.365665744521
0	173705	3023357.648423496449	35.488071122041
0	173718	3023399.024249332971	40.487218002207
0	173723	3023406.805319133538	7.781069800567
0	173734	3023604.407206506463	58.663655341843
0	173739	3023621.321740978588	16.914534472125
0	173744	3023667.379280987763	46.057540009175
0	173755	3023766.410137697769	20.14209262423
0	173760	3023780.774131334959	14.36399363719
0	173765	3023790.675213672304	9.901082337345
0	173772	3023990.818211959487	95.001353155355
0	173781	3024255.23637012131	44.361235421466
0	173788	3024498.566488596985	10.851826742216
0	173797	3024583.889933521329	40.24212667278
0	173800	3024584.291434778745	0.401501257416
0	173809	3024670.026673907194	11.404406236695
0	173818	3024753.793722363896	32.73662548843
0	173823	3024820.863551616256	67.06982925236
0	173832	3024966.218381017287	53.943905999761
0	173837	3025007.67591486475	41.457533847463
0	173844	3025278.577274994329	54.619630638871
0	173851	3025414.324331200106	9.81218234819
0	173860	3025473.454353046773	34.600606472729
0	173865	3025509.160855446777	35.706502400004
0	174114	3031090.560944992058	40.57735396973
0	174121	3031275.407733971098	12.206621789278
0	174130	3031370.561016457178	62.458849430548
0	174135	3031389.62729578136	19.066279324182
0	174142	3031573.242442750894	154.02162306671
0	174149	3031780.548354059386	59.160064102405
0	174156	3031880.949199395826	51.331176263145
0	174167	3032016.153627729615	3.553070333624
0	174174	3032249.278207989287	2.525439207326
0	174189	3032391.783484779982	121.66271413716
0	174319	3035239.348609608495	173.87683301547
0	174328	3035288.653019670337	49.304410061842
0	174333	3035325.335390567939	36.682370897602
0	174338	3035348.64630056421	23.310909996271
0	174343	3035356.543262213874	7.896961649664
0	174348	3035366.130352752121	9.587090538247
0	174357	3035417.901241787519	51.770889035398
0	174362	3035479.21281775812	61.311575970601
0	174367	3035521.800096037235	42.587278279115
0	174372	3035543.152002103644	21.351906066409
0	174377	3035544.539356750032	1.387354646388
0	174384	3035612.817473260648	37.95321611457
0	174391	3035700.542986993336	6.15337956605
0	174398	3035892.429381732256	21.137216551648
0	174406	3036046.844284246134	33.969818625076
0	174611	3040334.012753774526	30.139904427979
0	174620	3040390.814928446214	56.802174671688
0	174625	3040393.987626769636	3.172698323422
0	174630	3040402.63750091329	8.649874143654
0	174637	3040599.200724058522	31.939857674747
0	174644	3041035.665039364018	28.150695833527
0	174651	3041091.494841547145	5.434791302371
0	174658	3041184.941353079108	83.091129369257
0	174669	3041269.627207178163	34.851471764981
0	174676	3041340.935246476708	71.308039298545
0	174686	3041391.507635081185	17.286931438588
0	174691	3041550.144984846296	158.63734976511
0	174706	3041783.918246206503	64.223049307343
0	174711	3041814.15708751332	30.238841306817
0	174716	3041821.397868310134	7.240780796814
0	174723	3042027.430118009591	19.595489352132
0	174730	3042068.145271754925	25.385879029587
0	174739	3042262.222671255192	63.776134961891
0	174744	3042299.449466152956	37.226794897764
0	174751	3042638.866602727961	55.897862120076
0	174758	3042715.828174457871	21.264917755419
0	174765	3042725.145740730583	4.819784134094
0	174776	3042805.633337361567	69.398549679806
0	174783	3042831.901343083328	26.268005721761
0	174788	3042832.349179347351	0.447836264023
0	174793	3042835.819133043807	3.469953696456
0	174802	3043001.113922119529	58.767583714392
0	174807	3043028.321579971953	27.207657852424
0	174823	3044224.440923144157	28.551863641594
0	174830	3044347.621107976042	11.958498245663
0	174944	3047451.766666145136	80.013511230377
0	174957	3047853.919623748214	37.831899399233
0	174962	3047864.377033851994	10.45741010378
0	174969	3047904.294092364485	13.055526597272
0	174976	3048000.885334180613	1.463179167865
0	174983	3048160.779550460717	18.351910410915
0	174999	3048352.377663875398	11.287551644098
0	175004	3048358.16039423569	5.782730360292
0	175009	3048360.155636688611	1.995242452921
0	175022	3048860.715326309	18.347180807733
0	175027	3048921.803877606444	61.088551297444
0	175032	3048938.701045398024	16.89716779158
0	175039	3048942.502600414098	1.575700085712
0	175046	3049091.365945634951	22.518383819958
0	175053	3049213.542901966852	21.718226549741
0	175060	3049311.741409055329	7.378677428125
0	175073	3049391.227328166102	53.223084944999
0	175078	3049396.954423119961	5.727094953859
0	175085	3049469.754489669396	12.594423112985
0	175092	3049618.203073672826	60.43727881802
0	175101	3049924.216254176274	87.985345401545
0	175110	3050064.852028025317	140.63577384904
0	175115	3050078.429561853155	13.577533827838
0	175120	3050098.994662172495	20.56510031934
0	175127	3050157.228634506535	14.93392087254
0	175136	3050500.037818325939	28.202041482978
0	175141	3050504.328201660466	4.290383334527
0	175148	3050965.937082741957	2.542290760932
0	175155	3050982.417640719718	3.344278534079
0	175162	3051016.953262904151	9.970455005571
0	175169	3051036.579009739842	15.290985588706
0	175180	3051094.506869055742	52.771537233079
0	175187	3051127.94999476739	33.443125711648
0	175192	3051129.911909176998	1.961914409608
0	175197	3051205.018902524694	75.106993347696
0	175204	3051405.566231583799	6.357371587818
0	175213	3051737.063530442925	8.143528082133
0	175218	3051758.194348906443	21.130818463518
0	175225	3051863.269590396701	19.109018570751
0	175238	3052147.657771506148	279.60049275612
0	175243	3052155.734682458391	8.076910952243
0	175248	3052199.160485678446	43.425803220055
0	175253	3052203.920991530818	4.760505852372
0	175260	3052287.065874780957	8.988125138235
0	175269	3052334.478990341362	29.061412458676
0	175274	3052357.555738048471	23.076747707109
0	175281	3052478.812581689336	21.851303934026
0	175288	3052580.471309860969	32.455411237936
0	175295	3052660.183014672141	31.163480558722
0	175422	3055978.756398604088	56.659532692014
0	175429	3055998.702356404516	19.945957800428
0	175437	3056185.548679815045	186.84632341053
0	175443	3056208.532917387121	22.984237572076
0	175448	3056314.854955092663	106.32203770554
0	175455	3056332.69490524392	17.839950151257
0	175462	3056449.185054860927	116.49014961701
0	175467	3056450.420777340266	1.235722479339
0	175472	3056476.532461488486	26.11168414822
0	175477	3056510.140838465582	33.608376977096
0	175484	3056628.931886685015	70.460890300652
0	175491	3056656.676307458698	6.535121607413
0	175504	3056874.49600368314	128.92128751509
0	175509	3056899.254797386363	24.758793703223
0	175516	3056957.360793141102	54.193833237824
0	175523	3056993.583609471414	0.933053338923
0	175530	3057141.544841286677	51.15506674103
0	175537	3057628.180674726707	9.440846893572
0	175544	3057769.095756756884	17.264773084015
0	175551	3057978.330343179491	67.689070866406
0	175558	3058150.141759423302	9.724760945868
0	175565	3058225.332588887679	6.118188804579
0	175572	3058552.556933676219	108.4800120854
0	175579	3058764.305447067767	20.91446225898
0	175588	3058788.095408374726	6.606852581332
0	175593	3058846.39696091361	58.301552538884
0	175600	3058927.353125045096	17.256775904548
0	175607	3059694.849074531176	80.891136452922
0	175614	3059906.369018747695	13.076428699992
0	175621	3059962.826715709517	6.090954126605
0	175628	3060157.311498114598	7.772343310144
0	175637	3060280.529037730287	115.85680033192
0	175642	3060338.588066104299	58.059028374012
0	175655	3060463.761569745328	91.495150983758
0	175660	3060472.772275675433	9.010705930105
0	175665	3060495.447978447723	22.67570277229
0	175670	3060498.410114973637	2.962136525914
0	175677	3060638.035414279957	48.186059495902
0	175684	3060887.752074652942	33.992468079334
0	175691	3061020.897535620217	8.471681381573
0	175698	3061043.73400055059	22.666550702184
0	175705	3061358.938757841701	21.390082711473
0	175712	3061384.264507418582	18.322270575924
0	175719	3061639.835623283831	0.694250882649
0	175726	3061793.539591342868	25.520773016947
0	175733	3061902.363169585403	57.68858976476
0	175740	3062023.77167649877	55.45071837619
0	175749	3062030.109371331217	2.76953917673
0	175754	3062081.727030618406	51.617659287189
0	175761	3062389.782024410056	41.485821867806
0	175768	3062510.64105924652	7.603391354978
0	175775	3062558.997896204915	1.73185548644
0	175782	3062741.910416802156	23.68363939179
0	175789	3062790.530147734002	18.05617254799
0	175796	3062847.033414744033	37.531957988402
0	175809	3063284.639471319115	95.367164767164
0	175817	3063404.048370680001	29.536515340494
0	175822	3063425.840641914806	21.792271234805
0	175833	3063603.403090663028	10.736049191139
0	175840	3063686.959927289998	12.859924583187
0	175849	3063988.728030164118	151.92551100757
0	175854	3064022.151292153318	33.4232619892
0	175861	3064197.607627647371	100.13379066716
0	175868	3064231.746393749142	14.503736407383
0	175875	3064325.670549467998	19.692367158019
0	175882	3064372.620660046872	31.568491162759
0	175889	3064611.955158704603	13.618582391868
0	175896	3064934.815040916175	7.175019406152
0	175903	3065117.247479942045	10.030361285137
0	176252	3071558.485715566001	60.591586936546
0	176273	3072081.954655677583	52.624603670928
0	176276	3072082.671517629083	0.7168619515
0	176283	3072108.657364846793	25.98584721771
0	176288	3072111.985108938133	3.32774409134
0	176293	3072139.31857832534	27.333469387207
0	176296	3072142.196491249874	2.877912924534
0	176304	3072194.173771477122	51.977280227248
0	176311	3072211.856502782012	17.68273130489
0	176316	3072218.530754510625	6.674251728613
0	176325	3072434.504806439655	7.640719233628
0	176330	3072540.303591259395	105.79878481974
0	176337	3072672.917620235555	68.053635936168
0	176344	3072891.095666367604	45.425440814029
0	176351	3073065.187641772265	12.734478393382
0	176358	3073083.747673150745	0.756094005217
0	176371	3073193.038907886089	105.92416872724
0	176376	3073239.898875237235	46.859967351146
0	176385	3073414.782099399814	81.548068788432
0	176391	3073477.360300344685	62.578200944871
0	176421	3074191.153444753306	5.313238010722
0	176428	3074276.300186841062	37.176240287229
0	176439	3074458.034276800034	34.106714980643
0	176450	3074638.876408569068	143.10285679046
0	176455	3074669.250240356833	30.373831787765
0	176460	3074683.403884430513	14.15364407368
0	176467	3074829.653883550578	37.643761638268
0	176510	3075817.037320272723	105.32694365254
0	176515	3075849.188301354347	32.150981081624
0	176522	3075956.025570647536	16.642456380483
0	176531	3076282.595722002486	59.333872454152
0	176540	3076318.060484697058	35.464762694572
0	176545	3076408.538390368871	90.477905671813
0	176554	3076524.49059465783	115.95220428896
0	176580	3077305.882728175537	74.846166733927
0	176587	3077426.730483828802	120.84775565326
0	176592	3077457.773377518106	31.042893689304
0	176597	3077466.288406267554	8.515028749448
0	176604	3077605.463418288936	53.008222967802
0	176613	3077740.407890240134	20.24604682053
0	176618	3077742.554167892964	2.14627765283
0	176625	3077806.369474908242	26.442071904352
0	176632	3077904.615452815835	24.793434617086
0	176639	3077932.524044070129	8.050089777249
0	176646	3078186.891628938332	37.690092746535
0	176653	3078272.942762462545	2.027207525115
0	176660	3078303.185834997431	20.242318992453
0	176667	3078497.367667005593	53.165543186667
0	176680	3078736.240615353157	100.42992964853
0	176685	3078756.482872969897	20.24225761674
0	176692	3078991.168116898696	25.574239357768
0	176699	3079008.709030175653	9.224439979077
0	176706	3079539.973078867196	26.822817114723
0	176717	3079763.799933163272	134.93192888091
0	176722	3079777.499943659065	13.700010495793
0	176727	3079834.520102038437	57.020158379372
0	176734	3080019.74430030704	25.405448521186
0	176745	3080321.891490518744	159.59635039787
0	176750	3080327.431167276718	5.539676757974
0	176757	3080406.706202819065	13.089993411106
0	176768	3080712.727484297044	99.249536899149
0	176773	3080735.826493213133	23.099008916089
0	176780	3080842.871119625875	107.04462641274
0	176785	3080847.399725235818	4.528605609943
0	176792	3081017.509419856212	66.559179229104
0	176805	3081173.217980684679	85.789551038486
0	176810	3081176.541433296821	3.323452612142
0	176815	3081210.104822670013	33.563389373192
0	176820	3081239.415865309167	29.311042639154
0	176827	3081327.409781126419	4.378946651006
0	176834	3081359.806540912533	10.579690918707
0	176841	3081568.907655730064	42.719202307775
0	176848	3081866.928350799936	35.651640999184
0	176855	3081937.520369882819	30.479229458682
0	176862	3082087.062850965616	21.665853770754
0	176869	3082129.674756565506	37.477269542319
0	176876	3082257.455575678987	21.741361544976
0	176883	3082315.129325012322	42.810822717303
0	176890	3082436.029509599345	13.108039882954
0	176897	3082567.955017633538	29.418020498492
0	176904	3082591.436371952718	2.081621338743
0	176911	3082630.046530395837	10.03164471227
0	176918	3082657.118743447198	1.140740571517
0	176925	3083018.180531177779	27.869838168058
0	176936	3083173.359991469825	38.722542817986
0	176941	3083176.679677736578	3.319686266753
0	176948	3083201.103383027538	24.42370529096
0	176953	3083217.066644656187	15.963261628649
0	176960	3083241.598089821379	7.294634506119
0	176971	3083548.191148566927	115.48820347286
0	176978	3083566.998349313752	18.807200746825
0	176983	3083586.717876883457	19.719527569705
0	176988	3083616.290743631382	29.572866747925
0	176995	3084124.809987735958	85.379907611845
0	177002	3084299.191072233425	74.718400409381
0	177009	3084348.254652176548	20.911798545384
0	177016	3084473.117661266098	17.009085895805
0	177023	3084537.841396532668	12.677392708443
0	177030	3084631.479855940176	23.004214504214
0	177043	3084812.087543797155	154.1955506095
0	177048	3084882.470128417178	70.382584620023
0	177053	3084887.391592446112	4.921464028934
0	177058	3084890.85828824675	3.466695800638
0	177065	3084957.251037109337	2.193805632138
0	177074	3085138.244159343539	46.05106307648
0	177079	3085142.174290946429	3.93013160289
0	177086	3085309.79346980204	103.88651608709
0	177095	3085487.547394006509	37.636693437005
0	177100	3085489.366601550971	1.819207544462
0	177107	3085946.772098593092	107.35667051529
0	177116	3086216.477675092789	64.694009196742
0	177121	3086223.32608971627	6.848414623481
0	177130	3086449.953370131522	61.749898145898
0	177135	3086456.119085112355	6.165714980833
0	177142	3086633.052948639534	40.515611830118
0	177149	3086821.243603326378	60.065209871177
0	177156	3086985.693112515599	11.086869714094
0	177163	3087076.992339198335	73.134114764807
0	177174	3087291.845733346229	128.29682021368
0	177181	3087341.29976303401	49.454029687781
0	177186	3087446.569602819215	105.2698397852
0	177192	3087498.571691465317	52.002088646102
0	177213	3088204.085841813677	7.347727859441
0	177220	3088321.013825246362	35.772287021226
0	177243	3089041.74634811462	59.542790947783
0	177250	3089099.037739808658	6.651671021656
0	177257	3089231.947797392711	12.180160092655
0	177313	3090380.072334625682	6.062972098523
0	177328	3090528.457913281714	134.75511533989
0	177333	3090552.863320707473	24.405407425759
0	177343	3090702.335870165814	149.47254945834
0	177349	3090824.748938615953	28.06681251991
0	177364	3090896.523166374602	71.774227758649
0	177369	3090912.183740533622	15.66057415902
0	177376	3090921.965141695711	9.781401162089
0	177381	3090938.615961302299	16.650819606588
0	177386	3090950.107135439741	11.491174137442
0	177391	3091011.53713834441	61.430002904669
0	177396	3091056.844894120623	45.307755776213
0	177403	3091407.35166591803	60.211364758842
0	177412	3091711.996326535395	22.802987097905
0	177417	3091887.94986709735	175.95354056196
0	177424	3091949.286144870725	21.581538156674
0	177431	3092280.246083828503	21.999718078163
0	177438	3092696.581896429069	43.227834229636
0	177447	3092769.787499812586	39.789912287142
0	177452	3092783.018240980499	13.230741167913
0	177463	3093090.08489090852	200.76172097811
0	177468	3093170.79877926405	80.71388835553
0	177477	3093285.215178684531	114.41639942048
0	177482	3093341.61429238511	56.399113700579
0	177489	3093512.181963217534	170.56767083242
0	177502	3093722.552857765306	210.37089454777
0	177507	3093729.651411884091	7.098554118785
0	177512	3093784.815191375083	55.163779490992
0	177517	3093823.48023268385	38.665041308767
0	177522	3093864.450206374854	40.969973691004
0	177531	3093981.682417352595	89.533920828707
0	177538	3094062.713182305396	81.030764952801
0	177543	3094067.787238089653	5.074055784257
0	177550	3094408.904767670121	28.445218088415
0	177557	3094570.382504638467	67.75711401977
0	177564	3094803.690941312358	17.11672559833
0	177571	3095111.811976662844	11.888273136993
0	177578	3095332.211873295582	27.540596959466
0	177585	3095616.630170346929	0.325246702285
0	177592	3095662.769162296796	0.533625807529
0	177599	3095750.264910383526	17.410098941796
0	177606	3095943.696670622573	7.494060811436
0	177613	3096293.176494856006	47.017849720312
0	177624	3096383.963187012431	66.564513361636
0	177629	3096401.679499238182	17.716312225751
0	177634	3096412.590398728032	10.91089948985
0	177641	3096508.286946430073	12.383587468795
0	177648	3096559.757518280779	17.578662012605
0	177655	3096605.194173143908	37.170192014314
0	177662	3096638.436844203024	24.235539491893
0	177669	3096804.486023715628	12.99473750117
0	177676	3097046.206863282244	28.365890106262
0	177683	3097135.998871967904	59.045205705724
0	177922	3102191.089864954265	3.50230597975
0	177927	3102198.546546694091	7.456681739826
0	177932	3102220.283789151476	21.737242457385
0	177937	3102239.491828131681	19.208038980205
0	177942	3102245.153477663382	5.661649531701
0	177947	3102300.747569864329	55.594092200947
0	177958	3102517.469497080486	21.938990994697
0	177967	3102594.235173323777	55.778492696824
0	177972	3102689.407433994915	95.172260671138
0	177979	3102759.853304965104	1.392035190849
0	177986	3102772.742721684775	12.474260711864
0	177995	3103158.455035803657	18.185011826309
0	178003	3103364.317412965623	65.677432303412
0	178041	3104503.969185097678	30.403342197602
0	178046	3104533.34978173991	29.380596642232
0	178057	3105119.170331002904	14.569524422526
0	178064	3105147.791723870891	15.405486120966
0	178071	3105304.452640048865	34.061559369057
0	178080	3105576.279392117933	94.349778285586
0	178089	3105679.619821606067	103.34042948813
0	178094	3105696.477510015028	16.857688408961
0	178101	3105785.664089075541	89.186579060513
0	178106	3105874.986485572877	89.322396497336
0	178113	3105930.577478351866	3.974549765078
0	178120	3106180.217739229914	36.856551857733
0	178133	3106423.966004602593	74.494767173436
0	178138	3106439.488832809282	15.522828206689
0	178143	3106473.287274069587	33.798441260305
0	178148	3106481.111814249563	7.824540179976
0	178155	3106557.457682696921	35.668207002786
0	178162	3106774.697545910492	2.244794333961
0	178169	3106909.273352701484	1.180392913224
0	178178	3107039.439636098413	76.018733505751
0	178183	3107049.582014284246	10.142378185833
0	178190	3107290.793301918899	0.822031137753
0	178197	3107442.414210632778	59.191087140112
0	178206	3107457.679744997708	13.708076222956
0	178213	3107480.164701463957	22.484956466249
0	178218	3107486.115790082069	5.951088618112
0	178225	3107749.43263336174	49.891812054843
0	178232	3107955.706371359132	150.63139025609
0	178239	3108120.161432548758	31.310097480943
0	178246	3108181.185872078534	19.28659446876
0	178253	3108484.058068908822	74.022538437181
0	178260	3108534.980276722177	22.466424211085
0	178267	3108623.149812498663	3.852211095484
0	178274	3108721.40938390638	24.980201678332
0	178281	3108814.141732082662	18.220478437574
0	178288	3108882.176646098336	16.943537362337