version 2
run Simulations-22-20191218-11:09:16-65753
attr configname Simulations
attr datetime 20191218-11:09:16
attr experiment Simulations
attr inifile omnetpp.ini
attr iterationvars "$seed=7, $0=11000"
attr iterationvarsf seed=7,11000-
attr measurement "$seed=7, $0=11000"
attr network WifiCelNetPassiveQueue
attr processid 65753
attr repetition 0
attr replication #0
attr resultdir results/Simulations/omnet
attr runnumber 22
attr seedset 7
itervar seed 7
param **.numJobs 10000
param *.OFFLOAD.deadline exponential(11000s)
param *.source.interArrivalTime exponential(120s)
param *.WIFI.serviceTime exponential(40s)
param *.CELL.serviceTime exponential(400s)
param *.OFFLOAD.switchToWi exponential(1524s)
param *.OFFLOAD.switchToCel exponential(3120s)
param *.LOCAL.serviceTime exponential(5s)
param *.REMOTE.serviceTime exponential(1s)

vector 0 WifiCelNetPassiveQueue.WIFI serviceTime:vector ETV
attr interpolationmode none
attr title "wifi Service, vector"
attr unit s
vector 1 WifiCelNetPassiveQueue.WIFI responseTime:vector ETV
attr interpolationmode none
attr title "Response Time, vector"
attr unit s
vector 2 WifiCelNetPassiveQueue.REMOTE serviceTime:vector ETV
attr interpolationmode none
attr title "wifi Service, vector"
attr unit s
vector 3 WifiCelNetPassiveQueue.REMOTE responseTime:vector ETV
attr interpolationmode none
attr title "Response Time, vector"
attr unit s
vector 4 WifiCelNetPassiveQueue.sink lifeTime:vector ETV
attr interpolationmode none
attr title "lifetime of arrived jobs, vector"
attr unit s
vector 5 WifiCelNetPassiveQueue.OFFLOAD storeCelTime:vector ETV
attr interpolationmode none
attr title "Time in Cell, vector"
attr unit s
vector 6 WifiCelNetPassiveQueue.OFFLOAD queueLength:vector ETV
attr interpolationmode sample-hold
attr title "queue length, vector"
vector 7 WifiCelNetPassiveQueue.OFFLOAD storeDeadline:vector ETV
attr interpolationmode none
attr title "deadline, vector"
attr unit s
vector 8 WifiCelNetPassiveQueue.CELL serviceTime:vector ETV
attr interpolationmode none
attr title "wifi Service, vector"
attr unit s
vector 9 WifiCelNetPassiveQueue.CELL responseTime:vector ETV
attr interpolationmode none
attr title "Response Time, vector"
attr unit s
vector 10 WifiCelNetPassiveQueue.LOCAL serviceTime:vector ETV
attr interpolationmode none
attr title "wifi Service, vector"
attr unit s
vector 11 WifiCelNetPassiveQueue.LOCAL responseTime:vector ETV
attr interpolationmode none
attr title "Response Time, vector"
attr unit s
vector 12 WifiCelNetPassiveQueue.LOCAL queueLength:vector ETV
attr interpolationmode sample-hold
attr title "queue length, vector"
vector 13 WifiCelNetPassiveQueue.OFFLOAD storeWifiTime:vector ETV
attr interpolationmode none
attr title "Time in Wifi, vector"
attr unit s
vector 14 WifiCelNetPassiveQueue.REMOTE queueLength:vector ETV
attr interpolationmode sample-hold
attr title "queue length, vector"
0	174599	3000020.419765422446	29.402627562109
0	174606	3000348.491707326062	80.110951781569
0	174613	3000752.441192336277	21.55968313695
0	174620	3000775.613980132553	1.770325312493
0	174627	3000844.762909197984	7.97036903543
0	174634	3001258.113334750301	6.083833223905
0	174641	3001475.213621879585	49.567073127233
0	174648	3001559.555233200113	54.958564218287
0	174655	3001723.373321212579	54.013191393627
0	174918	3010179.996017786859	9.357757032111
0	174925	3010260.473170937543	80.477153150684
0	174933	3010385.841527320046	125.3683563825
0	174938	3010387.427052023008	1.585524702962
0	174945	3010421.797823586079	34.370771563071
0	174950	3010430.913840341019	9.11601675494
0	174955	3010445.082016456517	14.168176115498
0	174966	3010500.863301795147	55.78128533863
0	174973	3010580.988771024942	80.125469229795
0	174978	3010594.566962329859	13.578191304917
0	174983	3010621.580412453321	27.013450123462
0	174992	3010645.337861343306	23.757448889985
0	174997	3010838.044651683299	192.70679033999
0	175002	3010861.29120691314	23.246555229841
0	175007	3010881.629421769477	20.338214856337
0	175012	3010884.179660671619	2.550238902142
0	175017	3010897.934797283507	13.755136611888
0	175022	3010917.200586450827	19.26578916732
0	175027	3010932.85256389519	15.651977444363
0	175032	3010947.222603703817	14.370039808627
0	175037	3011003.458808910853	56.236205207036
0	175040	3011003.638707159345	0.179898248492
0	175047	3011010.837510077157	7.198802917812
0	175056	3011179.229835388046	168.39232531089
0	175061	3011192.6135376879	13.383702299854
0	175066	3011212.169780070885	19.556242382985
0	175069	3011212.467616677162	0.297836606277
0	175076	3011229.395559791304	16.927943114142
0	175081	3011273.374938654875	43.979378863571
0	175086	3011317.375441438735	44.00050278386
0	175091	3011360.628322734301	43.252881295566
0	175096	3011414.637874925223	54.009552190922
0	175101	3011417.458652902256	2.820777977033
0	175108	3011536.847425591625	119.38877268937
0	175113	3011579.557069074474	42.709643482849
0	175118	3011613.336617196624	33.77954812215
0	175125	3011697.500695151251	14.365004641066
0	175134	3011834.106506312717	78.552578007253
0	175141	3011868.823259368027	34.71675305531
0	175146	3011923.556555968282	54.733296600255
0	175153	3011983.520962610254	21.388096778103
0	175160	3012003.179848437481	15.38042205826
0	175189	3013015.350623846547	32.078507019615
0	175196	3013114.764315959296	99.413692112749
0	175201	3013124.647017714516	9.88270175522
0	175206	3013192.455298563457	67.808280848941
0	175213	3013353.582311681116	16.18740738003
0	175226	3013560.763729244612	39.813092575976
0	175231	3013564.648358948138	3.884629703526
0	175238	3013637.417546664832	7.923541944733
0	175247	3013795.966366897942	64.988188468815
0	175252	3013804.339072283085	8.372705385143
0	175259	3013929.771555708327	7.925120143264
0	175266	3013952.642380857586	10.646198538334
0	175273	3014026.666816852577	44.627508740425
0	175284	3014194.671244835006	161.80166105012
0	175289	3014204.271011556326	9.59976672132
0	175296	3014248.141452930597	43.870441374271
0	175301	3014274.496760908103	26.355307977506
0	175308	3014311.550364869412	33.76376475744
0	175315	3014356.389392326512	17.307422078695
0	175322	3014368.347895313826	0.660124058497
0	175329	3014647.626795387673	10.711808793612
0	175336	3014706.09994596102	2.130775931623
0	175343	3014810.15876247415	67.711773139341
0	175350	3014883.211065952887	52.435401907311
0	175357	3015317.45357345883	52.97731088561
0	175364	3015579.7137849989	8.995949575304
0	175371	3015682.959580427247	2.598298356569
0	175378	3015923.39981720395	42.517235800619
0	175387	3016094.476952336264	31.189842527223
0	175396	3016174.942777143464	80.4658248072
0	175405	3016228.764843079074	53.82206593561
0	175412	3016241.700799539829	12.935956460755
0	175419	3016315.342356079588	73.641556539759
0	175428	3016436.783570202713	121.44121412312
0	175437	3016515.655367799123	78.87179759641
0	175442	3016541.714541423133	26.05917362401
0	175447	3016555.242949653388	13.528408230255
0	175456	3016614.409924239547	59.166974586159
0	175463	3016658.055638897545	43.645714657998
0	175470	3016673.893314515555	15.83767561801
0	175479	3016754.82146364257	80.928149127015
0	175484	3016772.420904204667	17.599440562097
0	175491	3016847.840621096165	75.419716891498
0	175496	3016858.108919427763	10.268298331598
0	175501	3016931.467635473357	73.358716045594
0	175506	3017020.844348566871	89.376713093514
0	175513	3017093.325692192821	72.48134362595
0	175518	3017122.207414058858	28.881721866037
0	175525	3017207.211964721787	37.809037233033
0	175536	3017351.990214397823	96.324952976547
0	175541	3017379.031529060453	27.04131466263
0	175546	3017414.460684832898	35.429155772445
0	175553	3017487.991533584405	10.174856671059
0	175560	3017620.330432751983	13.609425165288
0	175567	3017696.954123296353	19.083302395805
0	175576	3017951.563689875739	153.9088188494
0	175585	3017977.676458747546	26.112768871807
0	175588	3017978.052791973033	0.376333225487
0	175595	3017983.938379710266	5.885587737233
0	175602	3018066.133728833899	2.763194417984
0	175609	3018113.29318967872	13.285020342148
0	175616	3018275.162152778877	4.154549546168
0	175623	3018300.141589336254	13.352422335388
0	175632	3018602.674077218306	2.400126534275
0	175637	3018642.722809650603	40.048732432297
0	175644	3018729.103289659983	49.82870643832
0	175651	3018744.684501799549	11.456724341046
0	175658	3018819.86412943839	60.209752138076
0	175665	3019469.836176283926	5.42556427959
0	175674	3019611.206906728014	45.120654304495
0	175681	3019670.439517250058	59.232610522044
0	175686	3019713.823993377866	43.384476127808
0	175693	3019735.658834521874	18.068430834674
0	175700	3019761.931895509941	6.188077765189
0	175709	3019801.72070938715	21.371593043516
0	175714	3019826.982949117123	25.262239729973
0	175721	3020596.145112919357	93.715279680283
0	175728	3020910.586096416694	21.793462798006
0	175741	3021201.626705913051	137.28144668938
0	175751	3021298.597120271476	3.473643759649
0	175756	3021338.694230804897	40.097110533421
0	175759	3021339.221243929161	0.527013124264
0	175768	3021454.936363050122	28.214531247324
0	175775	3021503.923268257051	1.351205814553
0	175784	3021705.711452696407	180.83963264639
0	175791	3021716.715017577925	11.003564881518
0	175796	3021760.629782754582	43.914765176657
0	175807	3022078.721123957788	75.804601230856
0	175814	3022264.634147039187	79.084171784876
0	175821	3022295.737795363168	17.071933748316
0	175830	3022614.697133316188	129.71743385904
0	175835	3022637.100284518438	22.40315120225
0	175846	3023133.118319588177	70.742661620013
0	175855	3023222.553637216889	89.435317628712
0	175860	3023237.951646911564	15.398009694675
0	175867	3023270.354100450029	32.402453538465
0	175874	3023279.326433435741	8.972332985712
0	175881	3023316.212838461778	36.886405026037
0	175886	3023321.414686645529	5.201848183751
0	175897	3023347.400690299473	25.986003653944
0	175902	3023407.001128248271	59.600437948798
0	175907	3023425.079964944917	18.078836696646
0	175914	3023440.515918647187	15.43595370227
0	175921	3023484.344024992252	43.828106345065
0	175926	3023490.839878748193	6.495853755941
0	175935	3023619.237614760165	103.14086334353
0	175940	3023635.515653677725	16.27803891756
0	175953	3024040.951352292199	122.89491003317
0	175958	3024046.001582823461	5.050230531262
0	175963	3024102.189903893894	56.188321070433
0	175968	3024111.741717210002	9.551813316108
0	175975	3024231.746930432405	104.78953168172
0	175982	3024290.710843294559	11.599540374355
0	176005	3024826.247661838717	96.942399599057
0	176016	3024896.49289219234	32.804334955554
0	176023	3025017.552450869915	121.05955867757
0	176030	3025078.8514459531	61.298995083185
0	176035	3025081.539790480001	2.688344526901
0	176040	3025088.057623516374	6.517833036373
0	176047	3025136.884945306897	27.880485293691
0	176115	3027576.61521407983	12.618479076806
0	176120	3027592.053199076297	15.437984996467
0	176125	3027673.893246255879	81.840047179582
0	176132	3027727.916747269099	54.02350101322
0	176141	3027848.576231502727	120.65948423363
0	176146	3027877.80024328999	29.224011787263
0	176151	3027881.631854549329	3.831611259339
0	176156	3027911.493187453921	29.861332904592
0	176167	3028051.171480205735	139.67829275181
0	176172	3028054.248825014095	3.07734480836
0	176177	3028060.64318915098	6.394364136885
0	176182	3028117.908845938181	57.265656787201
0	176187	3028136.02503660175	18.116190663569
0	176192	3028136.924524117456	0.899487515706
0	176197	3028144.942517731615	8.017993614159
0	176204	3028248.967711564393	26.004108967304
0	176215	3028560.860114514823	18.518581420577
0	176222	3028703.289815631567	58.802065683114
0	176231	3028890.865994659333	150.94128648945
0	176236	3028908.885537709236	18.019543049903
0	176245	3029212.785615236335	80.685065305811
0	176250	3029223.46969222334	10.684076987005
0	176257	3029291.205594367081	29.438897200458
0	176264	3029335.731701362756	18.129679843278
0	176271	3029401.688036258009	57.656309124402
0	176278	3029464.360780054281	19.740855471413
0	176285	3029549.940074012963	27.939407360626
0	176294	3029889.286454213959	174.34549110029
0	176299	3029894.669925144902	5.383470930943
0	176306	3030625.043872036226	69.098268703121
0	176319	3030813.123982381222	165.81204716816
0	176324	3030907.623281062327	94.499298681105
0	176329	3030965.937396885622	58.314115823295
0	176336	3031028.244189346063	62.306792460441
0	176345	3031169.9200193101	141.67582996404
0	176350	3031207.37453340277	37.45451409267
0	176357	3031321.629636371943	114.25510296917
0	176362	3031352.604017397366	30.974381025423
0	176371	3031465.188604883064	51.652640001897
0	176376	3031499.595897771732	34.407292888668
0	176383	3031748.555537321435	2.660742762184
0	176390	3031942.826037423676	55.006556386668
0	176399	3032193.712269657446	73.551255061041
0	176404	3032202.443615517191	8.731345859745
0	176411	3032391.082298774752	23.549750096002
0	176420	3032472.300989143819	13.184222235523
0	176425	3032496.07343714821	23.772448004391
0	176432	3032507.849977490782	0.82564280109
0	176443	3032599.716415966382	83.468674863939
0	176448	3032607.04479539998	7.328379433598
0	176453	3032658.505432761144	51.460637361164
0	176462	3032815.793882014733	11.615069198975
0	176467	3032824.815969162725	9.022087147992
0	176474	3032920.9293194071	68.746570543615
0	176551	3034524.630615406674	5.072463791863
0	176556	3034562.507574067148	37.876958660474
0	176561	3034564.582151602718	2.07457753557
0	176566	3034586.129169909142	21.547018306424
0	176575	3034634.045387255531	47.916217346389
0	176586	3034726.109905893141	92.06451863761
0	176595	3034870.479546870725	144.36964097758
0	176600	3034938.100917635046	67.621370764321
0	176605	3034945.501304078436	7.40038644339
0	176608	3034945.751727199657	0.250423121221
0	176615	3035038.900432585207	93.14870538555
0	176620	3035080.790854352474	41.890421767267
0	176625	3035095.847147428506	15.056293076032
0	176632	3035142.973486390697	47.126338962191
0	176637	3035193.940342750623	50.966856359926
0	176644	3035307.547385496179	22.475910560177
0	176651	3035416.643437312359	42.217061387863
0	176660	3035723.589528394104	36.055005698327
0	176665	3035776.544686730563	52.955158336459
0	176674	3035977.516832287694	68.437776550601
0	176679	3035988.2398455539	10.723013266206
0	176686	3036059.255478238495	27.359130123291
0	176693	3036118.658204274904	3.597998916508
0	176700	3036215.317042259828	24.043400046044
0	176707	3036404.843823012018	41.108222668933
0	176714	3036435.804169522	13.82671804981
0	176721	3036863.629478100194	21.481220332771
0	176730	3036958.658023479196	21.083628067027
0	176737	3036983.580134360278	24.922110881082
0	176742	3037050.699017827995	67.118883467717
0	176749	3037197.890551401042	3.101540044583
0	176756	3037316.763413855349	43.201428936511
0	176763	3037399.840337139667	60.143653026453
0	176772	3037545.170841434868	85.481594085756
0	176777	3037605.917027932813	60.746186497945
0	176784	3037720.246104407988	62.663529756412
0	176793	3037852.816906144005	65.03017177277
0	176798	3037890.238953578011	37.422047434006
0	176805	3038164.645297796567	35.496498130258
0	176812	3038242.771707426309	15.271971016772
0	176819	3038315.541125191022	68.040578887991
0	176826	3038407.664553174893	7.561359759628
0	176833	3038545.15590920258	86.026932596383
0	176842	3038782.184852575173	104.47360273154
0	176847	3038815.775322145872	33.590469570699
0	176854	3038846.584123852975	21.94187474233
0	176863	3039017.492116881562	81.481122119216
0	176868	3039036.574190341386	19.082073459824
0	176877	3039300.348527481203	158.04451050854
0	176882	3039362.525286588469	62.176759107266
0	176889	3039487.164216110818	35.604848160412
0	176896	3039553.089942974874	15.08150500685
0	176912	3040078.070743673647	18.151663721957
0	176924	3040160.837023950822	82.766280277175
0	176929	3040244.713781911615	83.876757960793
0	176936	3040296.585777622258	51.871995710643
0	176941	3040306.896729451137	10.310951828879
0	176948	3040332.260135622435	6.017445377585
0	176955	3040430.190371633338	86.941598289408
0	176962	3040454.149384693429	22.140557646206
0	176971	3040517.94794698782	42.428349163876
0	176974	3040520.215063237243	2.267116249423
0	176983	3040713.715077172422	31.99187946113
0	176990	3040846.529966109075	36.034217041422
0	176997	3040981.148285787045	48.144258379618
0	177008	3041099.824428864437	71.602970870942
0	177021	3041190.221341250252	90.396912385815
0	177026	3041264.831429174685	74.610087924433
0	177031	3041269.142288542527	4.310859367842
0	177036	3041298.302106535433	29.159817992906
0	177041	3041321.237559093708	22.935452558275
0	177046	3041329.6818223272	8.444263233492
0	177053	3041401.833752791538	15.009414920513
0	177060	3041467.507202787042	4.906623677359
0	177067	3041562.385631667212	9.794067617315
0	177076	3041693.02617178334	45.615112718179
0	177081	3041708.689925074358	15.663753291018
0	177088	3041768.319105892937	9.511411371933
0	177095	3042065.820605066441	59.090850668521
0	177102	3042459.62524818814	5.694700845296
0	177109	3042749.397454626279	57.95506640604
0	177116	3042856.680377732092	51.567902015518
0	177125	3043125.965715629377	35.430389347129
0	177130	3043128.882067614258	2.916351984881
0	177137	3043162.098839504663	5.657616028864
0	177144	3043330.081013998156	0.769580031107
0	177151	3043417.963445804375	46.818269625511
0	177158	3043483.443544002432	41.31738000759
0	177165	3043557.826273072372	2.738697640173
0	177172	3043589.338076883259	4.298968015712
0	177179	3043691.012111804135	6.340974492796
0	177186	3044382.415237690447	10.735353519812
0	177193	3044530.584146907121	73.621643074455
0	177200	3044588.227226553004	1.1380257843
0	177207	3044737.17429817107	106.6054480228
0	177214	3045030.392174174868	116.43282587762
0	177223	3045137.866035230637	50.812866378107
0	177228	3045141.122910925063	3.256875694426
0	177235	3045289.27212539581	32.888802275058
0	177242	3045368.597370971432	18.267653012227
0	177249	3045500.31263658712	5.043819487151
0	177256	3045936.486303066868	16.381180426607
0	177263	3046050.251909635133	4.249467730097
0	177270	3046083.816625459703	10.102489912421
0	177277	3046395.505216425055	36.685524481342
0	177284	3046448.745169568757	3.165645750191
0	177295	3046601.197038604216	66.280171501759
0	177300	3046647.725260782019	46.528222177803
0	177305	3046651.204935068698	3.479674286679
0	177314	3046972.820468881631	65.75973479339
0	177319	3046976.473115261861	3.65264638023
0	177326	3047264.042366730562	79.151094686643
0	177333	3047364.508996107624	15.936434525985
0	177344	3047546.211446230503	45.674345973987
0	177349	3047550.493796949771	4.282350719268
0	177354	3047563.950017543637	13.456220593866
0	177361	3047619.678672563717	1.713783998709
0	177368	3047805.1222264523	7.80585801065
0	177375	3047909.721501671173	2.555569094501
0	177382	3047994.593993056073	1.418977455817
0	177389	3048016.87432393442	5.194277434406
0	177396	3048047.789321244297	12.550918380701
0	177403	3048169.128228294754	52.396154328662
0	177410	3048444.577450109358	15.31190826506
0	177417	3048540.33472240056	29.325598939692
0	177428	3048655.5634934692	36.16387752072
0	177433	3048760.764933155869	105.20143968667
0	177438	3048770.185313049486	9.420379893617
0	177445	3048831.379638396333	39.227813387542
0	177459	3049168.027050849648	33.851834800357
0	177464	3049308.664885046716	140.63783419707
0	177471	3049390.938943937054	17.674053055471
0	177478	3049551.957691084475	36.258726160389
0	177487	3049728.846313532957	119.8057491564
0	177492	3049746.208486986496	17.362173453539
0	177503	3050012.014680548358	69.976008700013
0	177510	3050115.375782941295	33.727960557689
0	177517	3050202.10401682975	49.738796186354
0	177524	3050338.714627100641	21.412683107647
0	177531	3050399.621006946127	17.664235409028
0	177540	3050558.114807942437	14.983542938268
0	177545	3050560.24078945269	2.125981510253
0	177558	3050769.500149224954	87.847478878319
0	177563	3050795.788121487153	26.287972262199
0	177568	3050815.247561459519	19.459439972366
0	177573	3050857.844631048669	42.59706958915
0	177580	3050937.08997919183	45.088096254051
0	177587	3050987.715798768331	1.653528758882
0	177594	3051000.676320499783	3.626312757184
0	177601	3051053.350819082514	15.443891535271
0	177608	3051176.867084110009	12.123626309269
0	177615	3051601.162735431308	34.853937210608
0	177622	3051670.147988879637	48.417916641261
0	177629	3051725.980680246635	26.898086953786
0	177638	3051828.774712849874	14.822430041476
0	177645	3051931.764194593237	102.98948174336
0	177652	3051958.611559694716	26.847365101479
0	177659	3051963.565274930592	4.953715235876
0	177664	3051986.84844292494	23.283167994348
0	177671	3052193.32864089439	58.222458517838
0	177680	3052446.008513965322	200.94721889117
0	177687	3052467.668337569457	21.659823604135
0	177696	3052525.277281797777	57.60894422832
0	177703	3052577.007680810434	51.730399012657
0	177708	3052591.428902594609	14.421221784175
0	177713	3052608.214969871383	16.786067276774
0	177720	3052694.844597294339	79.52288619336
0	177727	3052739.917786335628	43.377757358801
0	177734	3052833.883061990777	65.939077407698
0	177743	3052982.465492088781	43.526506872172
0	177748	3053086.828067578761	104.36257548998
0	177755	3053149.516608856724	62.597724432399
0	177762	3053169.227528775845	9.455951727393
0	177769	3053251.124224992185	17.737083963809
0	177776	3053358.167101121776	30.247151936429
0	177783	3053443.822202107871	31.535654600787
0	177790	3054336.829352668642	114.67922661209
0	177799	3054487.92598328718	69.670275386021
0	177804	3054499.489064957948	11.563081670768
0	177811	3054548.857213017063	19.630686893756
0	177818	3054804.248592150116	33.306438710554
0	177825	3054900.151123907229	19.288984533297
0	177834	3055056.428513362485	51.979910549512
0	177841	3055115.69992953038	59.271416167895
0	177846	3055199.379692597761	83.679763067381
0	177855	3055293.089796912115	28.322020500976
0	177860	3055310.161206287963	17.071409375848
0	177867	3055400.87639684703	6.559610194792
0	177874	3055449.023537942605	4.886690425819
0	177881	3055572.693049886997	0.59894216589
0	177888	3055845.075553703052	34.996485012171
0	177895	3056136.371338669369	13.450712046193
0	177902	3056204.964006916971	20.799027088802
0	177909	3056515.522729612762	50.631176010552
0	177916	3056635.550921812242	4.727196585196
0	177923	3056778.275454406524	7.610333449264
0	177930	3056879.301195057944	48.175494138612
0	177937	3056909.458421533821	21.43609663489
0	177944	3057574.689134362485	3.739185128105
0	177951	3057614.670951597865	5.420287328912
0	177958	3057699.072866787486	12.042199593643
0	177965	3058205.207227667757	12.287904833613
0	177972	3058265.793898263124	53.919319886868
0	177981	3058540.818876146169	68.794610938707
0	177988	3058642.231925327997	101.41304918183
0	177995	3058702.859287699607	60.62736237161
0	178002	3058801.443307756666	98.584020057059
0	178007	3058858.843714921801	57.400407165135
0	178014	3058913.441054982716	36.528058687962
0	178021	3059055.142127367702	11.943905792254
0	178028	3059112.915425017966	17.283522591134
0	178035	3059248.542021227892	3.80327896476
0	178042	3059314.928668745683	27.508671156272
0	178049	3059663.580701032722	1.499111852504
0	178056	3059851.025828398313	13.427028954918
0	178063	3059933.292709189174	17.152395707145
0	178070	3059941.069741827501	1.22853834925
0	178077	3060302.536258529357	10.482743441042
0	178084	3060443.939563126793	41.910597405925
0	178097	3060679.530433488162	134.09699900179
0	178102	3060782.890087942889	103.35965445473
0	178107	3060848.146709602193	65.256621659304
0	178112	3060869.369164037892	21.222454435699
0	178119	3061230.652736245315	11.448262394343
0	178126	3061625.780270666843	4.496491296289
0	178133	3061761.722275256711	22.074900855732
0	178140	3061835.621609764857	20.173847138276
0	178147	3062562.84107045265	113.78621513911
0	178154	3062580.584319420225	7.680030867077
0	178163	3062696.237121223167	105.85259787965
0	178168	3062718.330656509998	22.093535286831
0	178179	3062939.183512761425	69.54913512021
0	178187	3063224.052427766723	12.396289206527
0	178223	3064219.398377906281	17.892087195257
0	178230	3064301.886914249125	82.488536342844
0	178237	3064320.585090855534	18.698176606409
0	178242	3064370.281414843203	49.696323987669
0	178251	3064384.906749104735	14.625334261532
0	178256	3064388.928701973592	4.021952868857
0	178263	3064419.238929253027	30.310227279435
0	178268	3064448.615248165654	29.376318912627
0	178273	3064465.300806145836	16.685557980182
0	178286	3064801.670084859144	28.944964169682
0	178291	3064832.355651728673	30.685566869529
0	178298	3065129.830050025421	44.323178362567
0	178305	3065364.809011327002	27.759862585834
0	178312	3065437.799062560348	11.577501807569
0	178319	3065494.105991702725	17.987148178507
0	178328	3065696.980448606322	49.039058950794
0	178335	3065823.544230279628	126.56378167331
0	178340	3065850.681136983354	27.136906703726
0	178349	3066039.324158126141	77.778413102981
0	178355	3066067.904799435214	28.580641309073
0	178365	3066215.51743361383	60.992686691697
0	178372	3066275.634086720104	60.116653106274
0	178377	3066323.815535572931	48.181448852827
0	178384	3066485.501660105419	52.587706150089
0	178391	3066566.105675343887	51.612026005353
0	178398	3066678.478658120619	36.308920772082
0	178407	3066911.069930129337	53.421964962553
0	178412	3066913.30356469872	2.233634569383
0	178421	3067230.477401318986	103.10083936097
0	178427	3067316.104917030106	85.62751571112
0	178462	3068180.830959029502	30.943309578824
0	178467	3068193.952602741722	13.12164371222
0	178472	3068217.94223519065	23.989632448928
0	178477	3068228.206706828313	10.264471637663
0	178482	3068290.72607138344	62.519364555127
0	178493	3068426.320509275452	135.59443789201
0	178500	3068474.306688582776	47.986179307324
0	178505	3068487.883038152646	13.57634956987
0	178512	3068573.922134077725	86.039095925079
0	178519	3068592.396695565701	18.474561487976
0	178526	3068634.498583019538	42.101887453837
0	178537	3068709.329760922455	74.831177902917
0	178542	3068729.181791955046	19.852031032591
0	178547	3068792.247471811913	63.065679856867
0	178595	3070950.055298418444	88.000972868182
0	178602	3070973.114633754026	23.059335335582
0	178607	3071003.074795134389	29.960161380363
0	178616	3071106.321585658592	103.2467905242
0	178621	3071127.935453723084	21.613868064492
0	178628	3071184.811353664591	56.875899941507
0	178633	3071261.510483484006	76.699129819415
0	178638	3071290.230904660833	28.720421176827
0	178643	3071343.097521956017	52.866617295184
0	178650	3071389.888323948158	46.790801992141
0	178655	3071412.16610407071	22.277780122552
0	178660	3071422.408526238538	10.242422167828
0	178669	3071536.869331270041	114.4608050315
0	178695	3072187.567728936771	4.286606497929
0	178698	3072188.461619605119	0.893890668348
0	178711	3072274.91968876516	86.458069160041
0	178716	3072327.120089688371	52.200400923211
0	178721	3072380.757994448323	53.637904759952
0	178728	3072453.1295854027	72.371590954377
0	178737	3072571.061541313535	117.93195591084
0	178742	3072591.751532248993	20.689990935458
0	178747	3072608.763821114662	17.012288865669
0	178754	3072651.738749906419	40.980694835929
0	178761	3072826.045423457837	12.905209680815
0	178772	3073095.72426345362	140.67861801932
0	178777	3073108.742957608752	13.018694155132
0	178782	3073114.972870121436	6.229912512684
0	178789	3073363.740934976222	16.517002450009
0	178796	3073512.180669789508	93.464443014908
0	178803	3073622.423784994364	11.917744480341
0	178810	3073683.354623595234	32.044846945064
0	178817	3073736.442992617788	41.432617435212
0	178824	3073855.675609334398	49.570388077725
0	178858	3074942.298699508091	61.938851823162
0	178865	3074972.542861904894	30.244162396803
0	178870	3074973.040768354704	0.49790644981
0	178875	3074974.213985820693	1.173217465989
0	178886	3075389.983788076414	57.935417534895
0	178893	3075458.228274071109	68.244485994695
0	178898	3075492.693766930948	34.465492859839
0	178909	3075586.195424311265	93.501657380317
0	178914	3075622.824330122609	36.628905811344
0	178919	3075647.608985942822	24.784655820213
0	178924	3075652.910365715026	5.301379772204
0	178931	3075758.82445069267	42.8066824705
0	178940	3075822.355583688724	59.059374348142
0	178945	3075823.833573728337	1.477990039613
0	178952	3076029.532875249971	65.230181642228
0	178959	3076339.111201179439	27.558384297564
0	178966	3076394.717786838985	5.439389340557
0	178975	3076492.851304878135	43.989180179709
0	178980	3076526.130195478446	33.278890600311
0	178989	3076618.862823226663	75.181989541383
0	178994	3076638.438383339725	19.575560113062
0	179001	3076754.60192207459	21.010021769175
0	179008	3076854.310021639921	2.589508644196
0	179076	3078788.916166702664	105.49818104836
0	179081	3078793.431928284911	4.515761582247
0	179087	3078864.308135866553	70.876207581642
0	179094	3078897.524062921228	33.215927054675
0	179099	3078901.901775895519	4.377712974291
0	179106	3078965.434925338326	63.533149442807
0	179111	3078974.446162181307	9.011236842981
0	179118	3079017.931313050361	43.485150869054
0	179123	3079024.166511512887	6.235198462526
0	179130	3079084.191157775192	60.024646262305
0	179139	3079124.827316051287	40.636158276095
0	179144	3079137.763706437024	12.936390385737
0	179149	3079139.3683953105	1.604688873476
0	179154	3079139.848299732981	0.479904422481
0	179159	3079142.077515142396	2.229215409415
0	179164	3079155.477303155222	13.399788012826
0	179169	3079172.153264494514	16.675961339292
0	179174	3079195.590952230278	23.437687735764
0	179179	3079215.732617380302	20.141665150024
0	179184	3079232.51552642882	16.782909048518
0	179214	3080218.209460588108	20.470397171683
0	179219	3080249.010632651059	30.801172062951
0	179224	3080318.667065689209	69.65643303815
0	179229	3080336.403536159865	17.736470470656
0	179234	3080403.47410063901	67.070564479145
0	179249	3080480.574894240169	77.100793601159
0	179254	3080591.140170685327	110.56527644516
0	179261	3080839.575419316147	248.43524863082
0	179266	3080846.581051042328	7.005631726181
0	179271	3081010.680442247515	164.09939120519
0	179276	3081036.742277427583	26.061835180068
0	179285	3081106.742170240789	69.999892813206
0	179290	3081124.780285565395	18.038115324606
0	179295	3081147.916069929565	23.13578436417
0	179309	3081373.919786138001	226.00371620844
0	179324	3081849.457698382925	18.406418308806
0	179339	3082184.483838733769	125.53600401026