version 2
run Simulations-13-20191215-22:53:55-18910
attr configname Simulations
attr datetime 20191215-22:53:55
attr experiment Simulations
attr inifile omnetpp.ini
attr iterationvars "$seed=7, $0=7200"
attr iterationvarsf seed=7,7200-
attr measurement "$seed=7, $0=7200"
attr network WifiCelNetPassiveQueue
attr processid 18910
attr repetition 0
attr replication #0
attr resultdir results/Simulations/omnet
attr runnumber 13
attr seedset 7
itervar seed 7
param **.numJobs 14000
param *.OFFLOAD.deadline exponential(7200s)
param *.source.interArrivalTime exponential(120s)
param *.WIFI.serviceTime exponential(40s)
param *.CELL.serviceTime exponential(400s)
param *.OFFLOAD.switchToWi exponential(1524s)
param *.OFFLOAD.switchToCel exponential(3120s)
param *.LOCAL.serviceTime exponential(5s)
param *.REMOTE.serviceTime exponential(1s)

vector 0 WifiCelNetPassiveQueue.WIFI serviceTime:vector ETV
attr interpolationmode none
attr title "wifi Service, vector"
attr unit s
vector 1 WifiCelNetPassiveQueue.WIFI responseTime:vector ETV
attr interpolationmode none
attr title "Response Time, vector"
attr unit s
vector 2 WifiCelNetPassiveQueue.REMOTE serviceTime:vector ETV
attr interpolationmode none
attr title "wifi Service, vector"
attr unit s
vector 3 WifiCelNetPassiveQueue.REMOTE responseTime:vector ETV
attr interpolationmode none
attr title "Response Time, vector"
attr unit s
vector 4 WifiCelNetPassiveQueue.sink lifeTime:vector ETV
attr interpolationmode none
attr title "lifetime of arrived jobs, vector"
attr unit s
vector 5 WifiCelNetPassiveQueue.OFFLOAD storeCelTime:vector ETV
attr interpolationmode none
attr title "Time in Cell, vector"
attr unit s
vector 6 WifiCelNetPassiveQueue.CELL serviceTime:vector ETV
attr interpolationmode none
attr title "wifi Service, vector"
attr unit s
vector 7 WifiCelNetPassiveQueue.CELL responseTime:vector ETV
attr interpolationmode none
attr title "Response Time, vector"
attr unit s
vector 8 WifiCelNetPassiveQueue.OFFLOAD queueLength:vector ETV
attr interpolationmode sample-hold
attr title "queue length, vector"
vector 9 WifiCelNetPassiveQueue.OFFLOAD storeDeadline:vector ETV
attr interpolationmode none
attr title "deadline, vector"
attr unit s
vector 10 WifiCelNetPassiveQueue.LOCAL serviceTime:vector ETV
attr interpolationmode none
attr title "wifi Service, vector"
attr unit s
vector 11 WifiCelNetPassiveQueue.LOCAL responseTime:vector ETV
attr interpolationmode none
attr title "Response Time, vector"
attr unit s
vector 12 WifiCelNetPassiveQueue.OFFLOAD storeWifiTime:vector ETV
attr interpolationmode none
attr title "Time in Wifi, vector"
attr unit s
vector 13 WifiCelNetPassiveQueue.REMOTE queueLength:vector ETV
attr interpolationmode sample-hold
attr title "queue length, vector"
vector 14 WifiCelNetPassiveQueue.LOCAL queueLength:vector ETV
attr interpolationmode sample-hold
attr title "queue length, vector"
0	87981	1500029.935381872626	1.537255667657
0	87988	1500145.991698191729	19.360575306872
0	87995	1500188.847897567968	22.03226785733
0	88057	1501898.438397163637	44.713370223203
0	88062	1501976.022443579677	77.58404641604
0	88067	1502006.854071155679	30.831627576002
0	88074	1502108.975200262423	102.12112910674
0	88081	1502120.685413604752	11.710213342329
0	88086	1502125.680189787497	4.994776182745
0	88093	1502197.474952757693	71.794762970196
0	88098	1502205.966134531906	8.491181774213
0	88105	1502344.539066922831	138.57293239092
0	88110	1502366.819393143539	22.280326220708
0	88117	1502473.077313275543	106.257920132
0	88124	1502500.503095372332	27.425782096789
0	88129	1502502.294811319915	1.791715947583
0	88134	1502530.587532386231	28.292721066316
0	88139	1502555.84314122493	25.255608838699
0	88146	1502594.719070027426	38.875928802496
0	88151	1502609.819732183749	15.100662156323
0	88158	1502849.440687314607	12.121744873746
0	88165	1502858.746603520579	6.864795804397
0	88172	1503046.836292937158	20.619960969378
0	88179	1503077.626663338729	20.21214062732
0	88186	1503145.528685280268	1.278242721206
0	88193	1503383.161589133114	121.42676920641
0	88202	1503683.636376210336	36.56084972605
0	88209	1503716.217003390965	32.580627180629
0	88214	1503727.508313827143	11.291310436178
0	88221	1504357.382676813581	36.464253488159
0	88228	1504370.533420912378	8.987399374995
0	88235	1504530.374227258594	98.50484470344
0	88244	1504626.658913881785	14.944686895067
0	88250	1504665.06044652673	38.401532644945
0	88326	1506797.87660202371	29.027355335835
0	88331	1506837.633136696361	39.756534672651
0	88334	1506837.977012397848	0.343875701487
0	88345	1506866.013014915375	28.036002517527
0	88350	1506878.162599236503	12.149584321128
0	88355	1506894.78584774828	16.623248511777
0	88360	1506946.135908278385	51.350060530105
0	88365	1506955.165710830314	9.029802551929
0	88372	1507034.250790275681	79.085079445367
0	88377	1507051.682212041498	17.431421765817
0	88382	1507063.393860625806	11.711648584308
0	88389	1507103.258587691873	39.864727066067
0	88394	1507117.186388045158	13.927800353285
0	88401	1507153.416537621169	36.230149576011
0	88410	1507177.845301261548	24.428763640379
0	88415	1507209.344372531864	31.499071270316
0	88420	1507244.342948066053	34.998575534189
0	88425	1507252.367924046276	8.024975980223
0	88434	1507587.228932184694	112.82735431535
0	88439	1507617.800739621219	30.571807436525
0	88446	1507655.914311181436	23.116544439215
0	88455	1507696.2842711902	32.464922653792
0	88460	1507716.21360835072	19.92933716052
0	88467	1507768.922801666082	24.425230120774
0	88478	1507974.378837573878	80.240863626949
0	88483	1507985.434761944431	11.055924370553
0	88488	1508013.444520226825	28.009758282394
0	88495	1508186.486732025363	2.2549975748
0	88502	1508259.374252227155	31.302761777636
0	88509	1508426.136304658886	132.25680567902
0	88518	1508524.581776139851	93.16376042906
0	88523	1508624.214077806573	99.632301666722
0	88530	1508724.035229649237	80.544804477116
0	88537	1508775.596702335419	0.46106826708
0	88544	1509069.493524908289	93.5814261234
0	88553	1509407.264510066588	81.866362865822
0	88558	1509427.862004854362	20.597494787774
0	88565	1509554.766590482704	103.14587371519
0	88572	1510111.213451679675	31.068186805187
0	88579	1510205.536346694863	81.067965776085
0	88586	1510239.216231617655	16.468780201732
0	88595	1510321.824006650416	75.595079233877
0	88600	1510324.166444243413	2.342437592997
0	88607	1510534.267654341733	0.863892217921
0	88616	1510565.850738683862	24.754990932407
0	88621	1510592.761664106532	26.91092542267
0	88628	1510687.082676848256	53.783721720053
0	88635	1510821.329223209001	2.003047706647
0	88642	1510885.813423750799	4.453980528195
0	88649	1511266.582899356112	3.270157937847
0	88656	1511420.821702010472	10.701322083014
0	88663	1511504.49204635555	7.138540242534
0	88670	1511514.909782202808	1.697019705426
0	88677	1511604.092852889909	4.085107382776
0	88684	1511666.998370602159	28.762666592832
0	88691	1511695.42781019204	4.017666438469
0	88698	1511993.230788441059	26.119645948416
0	88705	1512018.322577746468	24.688704791962
0	88714	1512431.717015769961	64.65178572481
0	88723	1512492.777174444219	61.060158674258
0	88730	1512550.628130357602	57.850955913383
0	88735	1512603.247477355305	52.619346997703
0	88740	1512680.435574190652	77.188096835347
0	88747	1512707.524610817569	1.051050451151
0	88754	1512805.621849249567	25.212633386201
0	88761	1512976.395650885244	35.185184015034
0	88768	1513095.307000736247	20.804020530671
0	88775	1513172.784735455259	36.863024712218
0	88782	1513193.026038706786	12.074244391052
0	88789	1513195.163730650671	0.68645740201
0	89013	1519062.82022209911	5.715811340562
0	89018	1519074.331349594602	11.511127495492
0	89023	1519084.567520872386	10.236171277784
0	89030	1519233.085367070391	148.51784619801
0	89035	1519294.361063329249	61.275696258858
0	89043	1519464.597764955944	170.2367016267
0	89292	1525188.550126090657	92.211791128903
0	89301	1525225.87500876662	37.324882675963
0	89306	1525232.167161599943	6.292152833323
0	89311	1525245.783842956936	13.616681356993
0	89316	1525281.389915605565	35.606072648629
0	89325	1525435.700563305643	154.31064770008
0	89350	1525996.886355041232	2.783750929877
0	89356	1526078.743752048249	81.857397007017
0	89362	1526162.857687400937	84.113935352688
0	89367	1526187.802827494664	24.945140093727
0	89372	1526194.188055054877	6.385227560213
0	89377	1526230.895006305162	36.706951250285
0	89382	1526290.047323279173	59.152316974011
0	89387	1526292.891398028779	2.844074749606
0	89394	1526372.624403441358	79.733005412579
0	89399	1526394.577992837047	21.953589395689
0	89406	1526438.469044737666	43.891051900619
0	89411	1526485.419541239103	46.950496501437
0	89416	1526505.668530801897	20.248989562794
0	89421	1526531.082336138809	25.413805336912
0	89426	1526549.173968106556	18.091631967747
0	89438	1526619.44696143481	70.272993328254
0	89445	1526682.046908722122	62.599947287312
0	89450	1526711.511906607059	29.464997884937
0	89455	1526736.86147697645	25.349570369391
0	89460	1526755.321000068943	18.459523092493
0	89465	1526760.030831634999	4.709831566056
0	89470	1526766.972462822338	6.941631187339
0	89475	1526774.847125657731	7.874662835393
0	89480	1526779.542881540394	4.695755882663
0	89488	1526811.846960609302	32.304079068908
0	89494	1526841.958319316101	30.111358706799
0	89499	1526906.305856377789	64.347537061688
0	89506	1526910.839145394564	4.533289016775
0	89515	1526956.387038966145	45.547893571581
0	89520	1527023.147826142981	66.760787176836
0	89527	1527075.257888287337	52.110062144356
0	89532	1527096.177885104484	20.919996817147
0	89537	1527166.691598662784	70.5137135583
0	89544	1527260.55140311732	93.859804454536
0	89549	1527364.332573896943	103.78117077962
0	89554	1527369.539944318739	5.207370421796
0	89560	1527422.700004374002	53.160060055263
0	89565	1527471.149566416667	48.449562042665
0	89568	1527471.401499424616	0.251933007949
0	89575	1527506.88336677092	35.481867346304
0	89580	1527528.859509228898	21.976142457978
0	89585	1527585.871524822524	57.012015593626
0	89592	1527653.169583959697	67.298059137173
0	89599	1527712.269810492907	59.10022653321
0	89604	1527738.72531800237	26.455507509463
0	89609	1527812.053383405018	73.328065402648
0	89618	1527930.007137237547	117.95375383253
0	89625	1527973.836169192026	43.829031954479
0	89632	1528016.593329004373	42.757159812347
0	89637	1528057.881479490626	41.288150486253
0	89642	1528083.824460489369	25.942980998743
0	89647	1528171.446580848044	87.622120358675
0	89652	1528226.243531322469	54.796950474425
0	89657	1528262.517980908567	36.274449586098
0	89666	1528416.583510701065	154.0655297925
0	89671	1528425.827276348064	9.243765646999
0	89676	1528434.124687357309	8.297411009245
0	89683	1528556.066995392032	121.94230803472
0	89688	1528668.95103093034	112.88403553831
0	89693	1528672.810368920744	3.859337990404
0	89700	1528685.632411850574	12.82204292983
0	89705	1528710.04396580731	24.411553956736
0	89710	1528725.769222585853	15.725256778543
0	89715	1528842.686605163235	116.91738257738
0	89720	1528863.242999805095	20.55639464186
0	89725	1528914.653636120092	51.410636314997
0	89732	1528920.468707921609	5.815071801517
0	89737	1528932.696436823312	12.227728901703
0	89742	1528952.020545469125	19.324108645813
0	89753	1529163.71109211263	211.69054664351
0	89760	1529243.605685860212	79.894593747582
0	89765	1529275.564700306348	31.959014446136
0	89770	1529307.566779234116	32.002078927768
0	89775	1529316.897846020449	9.331066786333
0	89778	1529317.574034492816	0.676188472367
0	89786	1529390.84214223821	73.268107745394
0	89836	1531135.269019073828	27.600785376905
0	89841	1531183.083639614056	47.814620540228
0	89846	1531184.553404647978	1.469765033922
0	89851	1531212.261096029352	27.707691381374
0	89858	1531248.36061571332	36.099519683968
0	89863	1531250.995611244476	2.634995531156
0	89868	1531343.260559151769	92.264947907293
0	89875	1531477.980538353857	134.71997920209
0	89880	1531567.57753762436	89.596999270503
0	89885	1531627.123748935762	59.546211311402
0	89890	1531683.157676736197	56.033927800435
0	89895	1531750.958429628672	67.800752892475
0	89900	1531762.743939262662	11.78550963399
0	89905	1531783.639162883053	20.895223620391
0	89910	1531799.491311973838	15.852149090785
0	89915	1531830.123012713858	30.63170074002
0	89920	1531831.956004764536	1.832992050678
0	89925	1531837.142813533239	5.186808768703
0	89930	1531846.686557086995	9.543743553756
0	89937	1531886.410696854614	39.724139767619
0	89942	1531916.646834953661	30.236138099047
0	89947	1531964.446038796782	47.799203843121
0	89952	1531985.908194994024	21.462156197242
0	89957	1531989.848312181425	3.940117187401
0	89962	1532147.138435961361	157.29012377994
0	89967	1532196.045724837486	48.907288876125
0	89974	1532221.855035547629	25.809310710143
0	89983	1532263.975009123764	42.119973576135
0	89988	1532275.153420536306	11.178411412542
0	89993	1532276.717041488813	1.563620952507
0	89998	1532287.178571915521	10.461530426708
0	90003	1532297.949916362493	10.771344446972
0	90012	1532614.991236115403	23.805376583141
0	90021	1532692.898028612194	77.906792496791
0	90026	1532740.140621458044	47.24259284585
0	90033	1532805.121828329566	64.981206871522
0	90038	1532821.69669783039	16.574869500824
0	90045	1532927.180110939666	6.770423075422
0	90054	1533059.357461648242	21.874560396948
0	90059	1533069.581363811034	10.223902162792
0	90066	1533134.476337457018	29.830697560558
0	90073	1533257.979213222912	22.383271546479
0	90134	1535926.700161584934	96.81654822589
0	90141	1536022.993011688087	96.292850103153
0	90148	1536046.292920092114	23.299908404027
0	90153	1536093.401561540245	47.108641448131
0	90162	1536170.237892472323	76.836330932078
0	90167	1536198.720912876669	28.483020404346
0	90172	1536228.705770639196	29.984857762527
0	90177	1536244.116238384516	15.41046774532
0	90184	1536319.735282635247	75.619044250731
0	90189	1536366.667099813231	46.931817177984
0	90194	1536448.981104072408	82.314004259177
0	90201	1536686.936789118587	237.95568504618
0	90206	1536701.466333291966	14.529544173379
0	90213	1536727.315658008249	25.849324716283
0	90218	1536766.302699593754	38.987041585505
0	90223	1536814.047331226383	47.744631632629
0	90230	1536938.174013457985	124.1266822316
0	90237	1536976.352952052187	38.178938594202
0	90242	1536994.605100412754	18.252148360567
0	90249	1537067.695277974654	29.537132736174
0	90256	1537156.218292003441	4.562462118019
0	90263	1537255.763905328495	25.627079825905
0	90270	1537260.649319255035	1.940067089303
0	90277	1537436.651825117159	73.757281618173
0	90288	1537583.52976551219	79.595065683008
0	90293	1537586.763244431841	3.233478919651
0	90298	1537659.44105183732	72.677807405479
0	90307	1537787.256739150437	48.245400548243
0	90312	1537804.344614953497	17.08787580306
0	90319	1538003.004048387097	11.961928772988
0	90328	1538173.296035523277	55.956483942008
0	90333	1538182.088459545363	8.792424022086
0	90393	1540261.436770929367	12.819761402185
0	90398	1540265.383140744623	3.946369815256
0	90403	1540278.102689765525	12.719549020902
0	90408	1540286.401399350397	8.298709584872
0	90413	1540292.32212927778	5.920729927383
0	90418	1540331.662106217258	39.339976939478
0	90423	1540355.266653556021	23.604547338763
0	90428	1540361.036390667546	5.769737111525
0	90433	1540393.674619722986	32.63822905544
0	90538	1543010.679310236476	10.371238815722
0	90545	1543084.464975279585	73.785665043109
0	90550	1543110.374864981954	25.909889702369
0	90555	1543127.428827252205	17.053962270251
0	90562	1543221.988107257796	94.559280005591
0	90571	1543303.870923789082	81.882816531286
0	90582	1543569.936035962444	266.06511217336
0	90587	1543703.99013548439	134.05409952195
0	90592	1543735.948693930651	31.958558446261
0	90597	1543742.509389280092	6.560695349441
0	90602	1543754.457180072289	11.947790792197
0	90607	1543845.853945121273	91.396765048984
0	90612	1543891.154053556961	45.300108435688
0	90617	1543909.48960790382	18.335554346859
0	90624	1544002.892132129342	93.402524225522
0	90633	1544123.01385758731	120.12172545797
0	90638	1544145.065170080717	22.051312493407
0	90643	1544153.615115787713	8.549945706996
0	90650	1544178.808782488907	25.193666701194
0	90657	1544243.190756134649	64.381973645742
0	90664	1544268.228627196853	25.037871062204
0	90669	1544314.13145856066	45.902831363807
0	90674	1544337.115096191392	22.983637630732
0	90679	1544451.858068601902	114.74297241051
0	90688	1544498.5428918137	46.684823211798
0	90693	1544505.69490598197	7.15201416827
0	90698	1544563.823174809265	58.128268827295
0	90705	1544741.942846492225	3.23076593592
0	90722	1544900.409473419019	129.24371655
0	90727	1544927.148174323587	26.738700904568
0	90732	1544959.188616883408	32.040442559821
0	90737	1545035.269761438166	76.081144554758
0	90742	1545071.32793374198	36.058172303814
0	90747	1545074.232892230766	2.904958488786
0	90754	1545379.893163113695	8.419231879602
0	90763	1545611.336715642905	50.80143098423
0	90774	1545679.118940552291	67.782224909386
0	90779	1545748.048624444422	68.929683892131
0	90786	1545790.25603139182	42.207406947398
0	90791	1545830.926345506258	40.670314114438
0	90796	1545882.372394460765	51.446048954507
0	90803	1546057.505320632591	1.571304699671
0	90812	1546232.82897285814	23.231576527815
0	90817	1546288.973968781109	56.144995922969
0	90824	1546498.394996933635	2.385598839916
0	90831	1546528.668198742146	28.217443624838
0	90838	1546656.439019736417	1.670095228641
0	90845	1546728.415091583537	1.397637282813
0	90852	1546734.403485814193	5.239814689672
0	90861	1546864.078467245098	113.39342181982
0	90866	1546897.031742731595	32.953275486497
0	90875	1546977.232717241623	18.682725435674
0	90884	1547080.640169290808	103.40745204918
0	90891	1547091.063078699235	10.422909408427
0	90896	1547106.193817132025	15.13073843279
0	90901	1547185.976941922432	79.783124790407
0	90908	1547277.64265832634	40.463272729383
0	90915	1547457.875200253031	66.66144196345
0	90922	1547477.21516593055	1.410265123545
0	90931	1548244.217928854735	50.499690869454
0	90936	1548337.739184784667	93.521255929932
0	90943	1548436.359581612378	11.14107795201
0	90950	1548742.878235033095	22.290448820968
0	90957	1548810.853272920314	32.732175938291
0	90964	1548943.556156577528	49.625386209063
0	90973	1549003.173465804268	49.719036569189
0	90980	1549021.504722669529	18.331256865261
0	90985	1549028.023418893729	6.5186962242
0	90992	1549173.27077351161	18.219195553606
0	91001	1549398.79037204441	99.206954691635
0	91006	1549429.621348591639	30.830976547229
0	91013	1549520.763157824942	90.551181505479
0	91020	1549660.570786265304	14.68736139493
0	91027	1549719.036267479455	10.342826224747
0	91034	1549783.503393870228	9.238683576545
0	91045	1549909.77329797085	46.556616943365
0	91050	1549913.897451062462	4.124153091612
0	91057	1549985.916827336902	72.01937627444
0	91066	1550093.393287154147	107.47645981725
0	91075	1550122.853646777001	29.460359622854
0	91080	1550131.10080135012	8.247154573119
0	91085	1550132.850118485626	1.749317135506
0	91088	1550134.034164113486	1.18404562786
0	91097	1550562.048745907752	7.479294012996
0	91104	1550856.947012566756	2.113292245112
0	91111	1551170.35338671092	53.099716096897
0	91118	1551206.989274820815	20.104841055545
0	91125	1551229.260474093733	15.887991663523
0	91132	1551469.246972432863	1.266985662588
0	91139	1551583.719139019533	89.481347896414
0	91146	1551729.257209060977	2.67549197156
0	91153	1552029.4799030321	55.879565888897
0	91160	1552044.074260151346	8.087234756517
0	91214	1553512.789216234339	151.62388865841
0	91223	1553688.776577999331	39.451677179778
0	91230	1553736.259239321317	47.482661321986
0	91235	1553741.21599936426	4.956760042943
0	91244	1553988.19677147994	89.839268894792
0	91249	1554005.913869055768	17.717097575828
0	91260	1554128.889750580519	67.870643055671
0	91459	1559902.151865978392	73.021429421993
0	91464	1559935.281537299907	33.129671321515
0	91471	1559964.272482346529	28.990945046622
0	91476	1559973.763999597238	9.491517250709
0	91482	1560062.267720331485	88.503720734247
0	91487	1560063.084372131604	0.816651800119
0	91494	1560097.134912620221	34.050540488617
0	91502	1560188.63328435233	91.498371732109
0	91592	1562180.115215970721	5.06147732842
0	91601	1562240.039366374784	59.924150404063
0	91609	1562336.094819382966	96.055453008182
0	91612	1562336.22352614102	0.128706758054
0	91619	1562378.203197373412	41.979671232392
0	91624	1562410.418683969781	32.215486596369
0	91630	1562599.362340810902	188.94365684112
0	91635	1562660.028847244671	60.666506433769
0	91640	1562682.936449831288	22.907602586617
0	91645	1562730.898397629503	47.961947798215
0	91650	1562749.234008771769	18.335611142266
0	91655	1562790.312723921938	41.078715150169
0	91660	1562806.645026329604	16.332302407666
0	91665	1562810.707926375178	4.062900045574
0	91672	1562827.647278467051	16.939352091873
0	91677	1562831.920916652387	4.273638185336
0	91682	1562879.598363705522	47.677447053135
0	91687	1562899.922165262651	20.323801557129
0	91694	1562908.72725494113	8.805089678479
0	91699	1562916.078433110098	7.351178168968
0	91706	1562922.882680982489	6.804247872391
0	91711	1562930.00606010604	7.123379123551
0	91716	1563032.335880801338	102.3298206953
0	91721	1563058.142737044077	25.806856242739
0	91732	1563184.962784032546	126.82004698847
0	91739	1563244.934389633301	59.971605600755
0	91748	1563298.149284876771	53.21489524347
0	91757	1563386.357946401557	88.208661524786
0	91764	1563487.51056120177	101.15261480021
0	91769	1563488.875979216822	1.365418015052
0	91774	1563510.665769175326	21.789789958504
0	91779	1563547.886774147469	37.221004972143
0	91784	1563591.576899215665	43.690125068196
0	91789	1563620.461144668965	28.8842454533
0	91794	1563636.35704646012	15.895901791155
0	91801	1563656.100515938243	19.743469478123
0	91806	1563702.102166604111	46.001650665868
0	91813	1563708.31723107696	6.215064472849
0	91820	1563726.284328957668	17.967097880708
0	91825	1563729.696531482992	3.412202525324
0	91830	1563755.72236074409	26.025829261098
0	91835	1563760.606622807761	4.884262063671
0	91840	1563797.440981372839	36.834358565078
0	91845	1563839.625740853058	42.184759480219
0	91850	1563854.563111305873	14.937370452815
0	91855	1563952.564534414674	98.001423108801
0	91866	1564071.40684518705	118.84231077238
0	91871	1564141.648899786585	70.242054599535
0	91876	1564148.892097843129	7.243198056544
0	91881	1564178.140335636219	29.24823779309
0	91886	1564195.233450350577	17.093114714358
0	91893	1564254.204064956707	58.97061460613
0	91898	1564270.343929374611	16.139864417904
0	91907	1564324.578108787862	54.234179413251
0	91912	1564331.04267507181	6.464566283948
0	91917	1564433.168887287505	102.12621221569
0	91922	1564443.159948296935	9.99106100943
0	91927	1564468.994043778658	25.834095481723
0	91932	1564471.405056796761	2.411013018103
0	91939	1564531.189052177152	59.783995380391
0	91944	1564550.76463147878	19.575579301628
0	91949	1564554.289260616384	3.524629137604
0	91958	1564596.342555011279	42.053294394895
0	91963	1564674.403149293073	78.060594281794
0	91972	1564777.102627216525	102.69947792345
0	91977	1564802.480897698324	25.378270481799
0	91982	1564867.285581698701	64.804684000377
0	91989	1564881.413536336299	14.127954637598
0	91994	1564909.619649632272	28.206113295973
0	91999	1564918.819913584526	9.200263952254
0	92004	1564943.210390885398	24.390477300872
0	92011	1565020.866043994654	77.655653109256
0	92020	1565147.810786395644	126.94474240099
0	92025	1565183.263991955323	35.453205559679
0	92030	1565236.90809976758	53.644107812257
0	92039	1565430.31067232947	30.414709465783
0	92044	1565452.670877783827	22.360205454357
0	92051	1565489.969594816248	6.615547684159
0	92064	1565669.033042185882	24.745835743164
0	92071	1565730.879436048786	61.846393862904
0	92076	1565797.958829534718	67.079393485932
0	92081	1565859.62477277069	61.665943235972
0	92086	1565886.813778496039	27.189005725349
0	92099	1566226.907423645267	157.30217752513
0	92104	1566245.649472847998	18.742049202731
0	92109	1566300.80679764335	55.157324795352
0	92114	1566320.181001635513	19.374203992163
0	92121	1566422.876564618368	0.353162538648
0	92130	1566506.38650400614	82.902121535658
0	92135	1566514.277075965246	7.890571959106
0	92142	1566720.312790938445	62.903615993142
0	92149	1566809.885982447153	3.328186469816
0	92158	1566936.033677313357	57.339983823225
0	92163	1566989.179508339965	53.145831026608
0	92170	1567110.615302117719	39.307696285386
0	92177	1567176.449847390502	19.183542421559
0	92184	1567189.141030482775	11.900799888615
0	92191	1567596.730268756649	27.007753780287
0	92198	1567662.367403953496	17.268816158305
0	92205	1568147.387165490824	8.08350535209
0	92212	1568209.608435652704	39.330816713225
0	92221	1568446.959263273254	61.079844024679
0	92226	1568452.345370863099	5.386107589845
0	92233	1568473.344525948727	12.180574151162
0	92240	1568713.172047042648	4.564061854448
0	92247	1568798.606905476621	63.370970991327
0	92254	1569011.829609747486	58.775501180555
0	92261	1569091.250819339251	64.66930537922
0	92270	1569252.727352891619	60.299391200365
0	92275	1569272.319251154846	19.591898263227
0	92282	1569342.790017341623	10.486384664395
0	92293	1569433.31355530182	77.100005647976
0	92298	1569445.086979809559	11.773424507739
0	92303	1569448.747320804925	3.660340995366
0	92310	1569830.456672889006	56.499004657936
0	92317	1569925.04903626391	38.845459005973
0	92324	1570007.252415402053	43.54519717406
0	92333	1570309.709444803606	31.117613020057
0	92338	1570353.93454166711	44.225096863504
0	92345	1570502.243487052907	10.287778400782
0	92352	1570608.577412371794	12.921523461087
0	92359	1570703.808455879329	44.482446824708
0	92368	1570859.050118998358	61.823992360208
0	92375	1570928.138424701442	69.088305703084
0	92380	1570945.83068760065	17.692262899208
0	92389	1570969.386570128786	22.5877365582
0	92398	1570990.706772053116	21.32020192433
0	92405	1571007.252295647383	16.545523594267
0	92410	1571064.257863013841	57.005567366458
0	92415	1571103.684292682861	39.42642966902
0	92758	1578682.217157360105	59.295494669528
0	92763	1578689.238456057415	7.02129869731
0	92768	1578760.716839278297	71.478383220882
0	92775	1578801.572260361119	40.855421082822
0	92780	1578808.588412834477	7.016152473358
0	92785	1578878.128918887417	69.54050605294
0	92790	1578901.246156727295	23.117237839878
0	92796	1578947.988310576211	46.742153848916
0	92801	1578984.006946036728	36.018635460517
0	92806	1579006.323667068741	22.316721032013
0	92811	1579008.965338414001	2.64167134526
0	92816	1579096.698340703225	87.733002289224
0	92821	1579112.810001768385	16.11166106516
0	92826	1579199.209609235578	86.399607467193
0	92831	1579227.804131446144	28.594522210566
0	92836	1579235.939696034653	8.135564588509
0	92841	1579248.106974668938	12.167278634285
0	92846	1579260.516719646357	12.409744977419
0	92853	1579332.232695274201	71.715975627844
0	92858	1579333.01086482804	0.778169553839
0	92863	1579339.413153364775	6.402288536735
0	92868	1579373.965894157988	34.552740793213
0	92873	1579415.141796105891	41.175901947903
0	92878	1579441.264909802018	26.123113696127
0	92883	1579443.103054662909	1.838144860891
0	92888	1579465.882747315138	22.779692652229
0	92893	1579501.305949696608	35.42320238147
0	92900	1579562.81181189713	61.505862200522
0	92905	1579583.556595717853	20.744783820723
0	92910	1579630.955788665849	47.399192947996
0	92915	1579644.157917913024	13.202129247175
0	92920	1579650.577557778658	6.419639865634
0	92925	1579659.654523028134	9.076965249476
0	92932	1579703.966623911344	44.31210088321
0	92937	1579802.191824601678	98.225200690334
0	92942	1579813.450093573667	11.258268971989
0	92947	1579818.383566921756	4.933473348089
0	92952	1579857.364004149641	38.980437227885
0	92961	1579894.562276094385	37.198271944744
0	92966	1579923.12826343261	28.565987338225
0	92971	1579931.852445978938	8.724182546328
0	92978	1579959.89996086369	28.047514884752
0	92983	1579962.386333400732	2.486372537042
0	92990	1579988.152882033624	11.829013163386
0	92997	1580128.201344650343	39.136874667054
0	93004	1580206.36221313679	51.769822825851
0	93011	1580966.742140336466	5.95034859102
0	93018	1581055.982589302969	30.049058563716
0	93025	1581311.066630066873	87.616354819019
0	93032	1581471.667043688519	86.60117687805
0	93039	1581498.519581297043	9.356827563421
0	93046	1582026.216397943714	96.225011842806
0	93053	1582081.838858524848	8.47545401621
0	93060	1582230.190212617575	140.70156119902
0	93069	1582442.477674512075	27.4455971585
0	93076	1582507.257081075807	25.533138155799
0	93083	1582582.497185500302	10.240327942701
0	93090	1582633.175472398677	10.772348738826
0	93097	1582798.32297662214	38.780508333839
0	93104	1582850.049907870648	25.371518875136
0	93111	1582973.808856879161	77.300020980639
0	93120	1583072.592327902654	10.37563564676
0	93125	1583106.65955909198	34.067231189326
0	93132	1583160.603745538092	10.833551078982
0	93141	1583654.665142744123	31.873213582724
0	93146	1583695.36348624175	40.698343497627
0	93155	1583873.168018267889	131.89634550313
0	93160	1583893.532007409246	20.363989141357
0	93167	1584138.691625562692	4.918312766772
0	93174	1584442.630751392879	9.369861349063
0	93183	1584508.097679476408	44.088361848255
0	93188	1584549.44553776828	41.347858291872
0	93195	1584674.283459455512	27.094393254404
0	93202	1584926.199321454698	43.03147871945
0	93326	1587633.326444029401	14.366157889406
0	93331	1587645.427856761389	12.101412731988
0	93338	1587695.520514119632	50.092657358243
0	93343	1587716.81654428857	21.296030168938
0	93350	1587740.0257559797	23.20921169113
0	93355	1587740.875414251056	0.849658271356
0	93360	1587753.729523497109	12.854109246053
0	93367	1587785.730007309455	32.000483812346
0	93372	1587799.474199091787	13.744191782332
0	93377	1587822.331999309458	22.857800217671
0	93382	1587847.309369189747	24.977369880289
0	93387	1587891.583961915974	44.274592726227
0	93392	1587903.440831780931	11.856869864957
0	93397	1587945.936002785536	42.495171004605
0	93404	1588244.250176770843	55.122017537916
0	93411	1588428.797803345356	41.320015896315
0	93418	1588596.432805957054	38.830994253571
0	93425	1588638.122322393053	31.876832771646
0	93434	1588956.946946056799	112.7306154095
0	93441	1589006.946233252867	49.999287196068
0	93446	1589014.522931899043	7.576698646176
0	93453	1589213.807836467309	9.193967455032