version 2
run Simulations-74-20191218-11:09:26-65753
attr configname Simulations
attr datetime 20191218-11:09:26
attr experiment Simulations
attr inifile omnetpp.ini
attr iterationvars "$seed=65, $0=12000"
attr iterationvarsf seed=65,12000-
attr measurement "$seed=65, $0=12000"
attr network WifiCelNetPassiveQueue
attr processid 65753
attr repetition 0
attr replication #0
attr resultdir results/Simulations/omnet
attr runnumber 74
attr seedset 65
itervar seed 65
param **.numJobs 10000
param *.OFFLOAD.deadline exponential(12000s)
param *.source.interArrivalTime exponential(120s)
param *.WIFI.serviceTime exponential(40s)
param *.CELL.serviceTime exponential(400s)
param *.OFFLOAD.switchToWi exponential(1524s)
param *.OFFLOAD.switchToCel exponential(3120s)
param *.LOCAL.serviceTime exponential(5s)
param *.REMOTE.serviceTime exponential(1s)

vector 0 WifiCelNetPassiveQueue.OFFLOAD queueLength:vector ETV
attr interpolationmode sample-hold
attr title "queue length, vector"
vector 1 WifiCelNetPassiveQueue.WIFI serviceTime:vector ETV
attr interpolationmode none
attr title "wifi Service, vector"
attr unit s
vector 2 WifiCelNetPassiveQueue.WIFI responseTime:vector ETV
attr interpolationmode none
attr title "Response Time, vector"
attr unit s
vector 3 WifiCelNetPassiveQueue.REMOTE serviceTime:vector ETV
attr interpolationmode none
attr title "wifi Service, vector"
attr unit s
vector 4 WifiCelNetPassiveQueue.REMOTE responseTime:vector ETV
attr interpolationmode none
attr title "Response Time, vector"
attr unit s
vector 5 WifiCelNetPassiveQueue.sink lifeTime:vector ETV
attr interpolationmode none
attr title "lifetime of arrived jobs, vector"
attr unit s
vector 6 WifiCelNetPassiveQueue.OFFLOAD storeCelTime:vector ETV
attr interpolationmode none
attr title "Time in Cell, vector"
attr unit s
vector 7 WifiCelNetPassiveQueue.CELL serviceTime:vector ETV
attr interpolationmode none
attr title "wifi Service, vector"
attr unit s
vector 8 WifiCelNetPassiveQueue.CELL responseTime:vector ETV
attr interpolationmode none
attr title "Response Time, vector"
attr unit s
vector 9 WifiCelNetPassiveQueue.OFFLOAD storeDeadline:vector ETV
attr interpolationmode none
attr title "deadline, vector"
attr unit s
vector 10 WifiCelNetPassiveQueue.OFFLOAD storeWifiTime:vector ETV
attr interpolationmode none
attr title "Time in Wifi, vector"
attr unit s
vector 11 WifiCelNetPassiveQueue.LOCAL serviceTime:vector ETV
attr interpolationmode none
attr title "wifi Service, vector"
attr unit s
vector 12 WifiCelNetPassiveQueue.LOCAL responseTime:vector ETV
attr interpolationmode none
attr title "Response Time, vector"
attr unit s
vector 13 WifiCelNetPassiveQueue.REMOTE queueLength:vector ETV
attr interpolationmode sample-hold
attr title "queue length, vector"
0	176367	3000013.117586550108	8
0	176368	3000069.488363050049	7
0	176373	3000080.8890426041	6
0	176379	3000114.651499028861	7
0	176380	3000126.884582147294	6
0	176385	3000155.606104416661	5
0	176390	3000189.762958458815	4
0	176395	3000199.961525774212	3
0	176400	3000223.552632057364	2
0	176405	3000250.007125370453	1
0	176411	3000272.486778087467	2
0	176413	3000313.631021561118	3
0	176414	3000322.3797824923	2
0	176419	3000371.127705329402	1
0	176424	3000371.922328463705	0
0	176430	3000394.038225019485	1
0	176432	3000421.066246718294	2
0	176433	3000477.441345105665	1
0	176438	3000521.262365098617	0
0	176486	3001631.600322979581	1
0	176488	3001690.688645448118	2
0	176489	3001690.805535639075	1
0	176494	3001701.563278028091	0
0	176529	3002295.985846903189	1
0	176531	3002298.587038851444	2
0	176532	3002448.896878274651	1
0	176538	3002458.011637055685	2
0	176539	3002581.899212636918	1
0	176545	3002620.169254475583	2
0	176546	3002657.3323518774	1
0	176548	3002721.955459806625	0
0	176622	3004220.433800025215	1
0	176623	3004268.159985481565	0
0	176629	3004324.99377149509	1
0	176631	3004407.809147783942	2
0	176633	3004610.722184983232	3
0	176635	3004620.631079091545	4
0	176636	3004711.204757536622	3
0	176640	3004762.415766362299	2
0	176645	3004952.112327334879	1
0	176650	3005124.314822026008	0
0	176660	3005266.020697094843	1
0	176661	3005288.860295673015	0
0	176674	3005421.874393561947	1
0	176676	3005426.111464917572	2
0	176677	3005453.373035216904	1
0	176682	3005482.38936781504	0
0	176688	3005498.720447740864	1
0	176689	3005504.798334555524	0
0	176702	3005637.700458451695	1
0	176703	3005639.034170378232	0
0	176744	3005888.424628517796	1
0	176745	3005893.59221837134	0
0	176793	3006153.164476774682	1
0	176795	3006155.869981628166	2
0	176797	3006155.884538077019	3
0	176798	3006165.170905056696	2
0	176807	3006190.219306430352	1
0	176812	3006330.504891628112	0
0	176818	3006339.090296631992	1
0	176820	3006350.739528937664	2
0	176821	3006403.177131134268	1
0	176827	3006443.174312585659	2
0	176828	3006559.20709354054	1
0	176833	3006573.266687120113	0
0	176846	3006620.909030216575	1
0	176847	3006630.775926654771	0
0	176888	3007413.002239179814	1
0	176890	3007419.740937216858	2
0	176891	3007461.277799023111	1
0	176896	3007466.535289989879	0
0	176909	3007480.950875802069	1
0	176910	3007517.339466179818	0
0	176951	3007812.166348874235	1
0	176953	3007835.818650209034	2
0	176954	3007867.030386226538	1
0	176960	3007881.482063192934	2
0	176962	3007882.216450037685	3
0	176964	3007884.165217686052	4
0	176965	3007933.72264258093	3
0	176970	3007947.891614984562	2
0	176975	3007964.565062646012	1
0	176981	3008048.600261778891	2
0	176982	3008105.215145805098	1
0	176987	3008167.909784206744	0
0	177056	3009210.52592870449	1
0	177057	3009325.38391706855	0
0	177091	3010118.891686949869	1
0	177092	3010174.373222514047	0
0	177105	3010494.545560863548	1
0	177106	3010495.167895800987	0
0	177133	3010860.497395418057	1
0	177134	3010869.039443258063	0
0	177161	3011141.908351617653	1
0	177162	3011147.980186262326	0
0	177182	3011593.101330073132	1
0	177183	3011635.818234032832	0
0	177210	3011912.909433206617	1
0	177212	3011922.800010587718	2
0	177213	3012005.614650683744	1
0	177218	3012015.612607931769	0
0	177224	3012021.737998571524	1
0	177225	3012069.047818122464	0
0	177253	3012802.587063501712	1
0	177254	3012826.036213808799	0
0	177271	3013319.871148643819	1
0	177272	3013330.72036857657	0
0	177283	3013450.105212143101	1
0	177285	3013514.716213489044	2
0	177286	3013523.534521540213	1
0	177291	3013602.255229738754	2
0	177293	3013606.499340582736	3
0	177295	3013651.886761527903	4
0	177297	3013655.762445024244	5
0	177299	3013914.878376748192	6
0	177301	3013978.062564030314	7
0	177303	3014183.519428063955	8
0	177304	3014201.364806436966	7
0	177310	3014207.283135810805	8
0	177312	3014273.798644241563	9
0	177314	3014317.892343315891	10
0	177315	3014401.14698114688	9
0	177320	3014429.313014710938	8
0	177326	3014453.501053587343	9
0	177328	3014558.276183371672	10
0	177330	3014566.511720699089	11
0	177332	3014581.983325460835	12
0	177333	3014650.889772327515	11
0	177339	3014701.163778499012	12
0	177340	3014714.36011113197	11
0	177346	3014796.441317614305	12
0	177348	3014819.702629802103	13
0	177350	3014917.679047785813	14
0	177351	3014946.935520887289	13
0	177353	3015017.910650857214	12
0	177358	3015028.484739252831	11
0	177363	3015047.054624031685	10
0	177368	3015076.909697045584	9
0	177377	3015125.267914756048	8
0	177382	3015174.976437363604	7
0	177388	3015279.795711370565	8
0	177389	3015299.709168106048	7
0	177394	3015341.59622210342	6
0	177399	3015467.258135567559	5
0	177404	3015490.330826629176	4
0	177410	3015499.41776496498	5
0	177411	3015506.345902155619	4
0	177416	3015546.032601971571	3
0	177421	3015558.391403271838	2
0	177426	3015573.439283433058	1
0	177431	3015589.081031980911	0
0	177437	3015601.443931590373	1
0	177438	3015645.507159944012	0
0	177465	3016392.715201142996	1
0	177466	3016489.223038296761	0
0	177480	3016807.033777199043	1
0	177481	3016827.245042166177	0
0	177486	3016866.600541277652	1
0	177487	3016874.168497862785	0
0	177493	3016878.127794494033	1
0	177494	3017216.815495110465	0
0	177514	3017867.28645434511	1
0	177516	3017928.92480005961	2
0	177518	3017932.656997834131	3
0	177520	3018107.006468265563	4
0	177522	3018123.913749190104	5
0	177524	3018156.197179780905	6
0	177526	3018192.453210303225	7
0	177528	3018251.461441677718	8
0	177530	3018255.01120474187	9
0	177532	3018467.662950410951	10
0	177534	3018479.276888797438	11
0	177536	3018501.014410640073	12
0	177538	3018563.556403782876	13
0	177540	3018571.397403223631	14
0	177541	3018640.201180313848	13
0	177547	3018805.777307854899	14
0	177548	3018958.289774105871	13
0	177553	3019232.710496953278	12
0	177555	3019238.85768639977	11
0	177560	3019246.421002983127	10
0	177565	3019273.729657975209	9
0	177570	3019275.052020882769	8
0	177575	3019308.940768905101	7
0	177581	3019346.643488013762	6
0	177584	3019347.079923158199	5
0	177591	3019355.661535563042	4
0	177596	3019446.294717481205	3
0	177601	3019503.49698870021	2
0	177606	3019521.256426468145	1
0	177611	3019535.598920784147	0
0	177670	3020296.380647508401	1
0	177671	3020317.967435655264	0
0	177677	3020383.979872594194	1
0	177678	3020385.541416182134	0
0	177712	3021037.951862000747	1
0	177713	3021086.926297551303	0
0	177726	3021145.015573814388	1
0	177728	3021203.448880212253	2
0	177729	3021333.133239292878	1
0	177734	3021340.820097286598	0
0	177747	3021470.305556100277	1
0	177748	3021475.223384950297	0
0	177831	3022908.833648129404	1
0	177832	3022913.575303921955	0
0	177838	3022971.242523490444	1
0	177839	3022989.748896639085	0
0	177873	3024347.950755143965	1
0	177875	3024348.095097827221	2
0	177876	3024354.535008830073	1
0	177880	3024355.597439326012	2
0	177881	3024357.733448644193	1
0	177888	3024407.173817639602	0
0	177901	3024536.871322364144	1
0	177903	3024571.392972053515	2
0	177904	3024601.047204002889	1
0	177907	3024601.229449363653	0
0	177929	3024721.02304793474	1
0	177931	3024736.146429925851	2
0	177932	3024737.850794606838	1
0	177937	3024746.036576435292	0
0	177964	3025031.175213191318	1
0	177965	3025031.660358024081	0
0	177999	3025781.946800148429	1
0	178001	3025813.379400434343	2
0	178002	3025861.375024519163	1
0	178007	3025906.518588273177	0
0	178027	3026286.715242151258	1
0	178029	3026291.819500102532	2
0	178030	3026296.900725401927	1
0	178035	3026391.718496886221	0
0	178048	3026794.092898183683	1
0	178049	3026802.135381268524	0
0	178076	3027160.629538432475	1
0	178077	3027189.691787480361	0
0	178111	3027646.751684161111	1
0	178112	3027658.207970792057	0
0	178239	3030601.545542333201	1
0	178240	3030649.01141566602	0
0	178260	3030999.86149888242	1
0	178261	3031020.835401045894	0
0	178267	3031118.438948337537	1
0	178269	3031157.518983701394	2
0	178270	3031160.894425909096	1
0	178276	3031173.748153496433	2
0	178277	3031232.40588498284	1
0	178283	3031285.767282167494	0
0	178289	3031464.475608138892	1
0	178290	3031659.028700043231	0
0	178296	3031829.858171228889	1
0	178297	3031896.73150020062	0
0	178310	3032023.158241527583	1
0	178311	3032047.911980971745	0
0	178317	3032115.815566049575	1
0	178319	3032116.31725171152	2
0	178321	3032170.581625699372	3
0	178323	3032194.786635624902	4
0	178324	3032538.751708220243	3
0	178329	3032561.146437289553	2
0	178335	3032599.575497949058	3
0	178337	3032678.947288609508	4
0	178339	3032772.396294377586	5
0	178341	3032773.219394350828	6
0	178342	3032910.525190950486	5
0	178345	3032929.619303392341	6
0	178347	3032957.478168472155	7
0	178348	3032973.376202628649	6
0	178353	3032981.888521663011	5
0	178358	3032985.692685503112	4
0	178363	3033035.742696754483	3
0	178372	3033082.272507037694	2
0	178378	3033154.739169122727	3
0	178379	3033176.408707847149	2
0	178384	3033190.926614211809	1
0	178389	3033192.660971972686	0
0	178395	3033199.301064243957	1
0	178396	3033211.012989920599	0
0	178409	3033462.641763795	1
0	178410	3033552.524276962376	0
0	178430	3033753.022076266241	1
0	178431	3033763.615893463288	0
0	178535	3036524.522478963913	1
0	178536	3036578.713767694922	0
0	178550	3036813.106071599934	1
0	178551	3036933.988910449562	0
0	178557	3036943.261179931762	1
0	178559	3037072.054497630575	2
0	178561	3037103.384532588395	3
0	178563	3037139.31492450733	4
0	178565	3037158.592732339049	5
0	178567	3037222.541310784674	6
0	178568	3037294.865377656035	5
0	178574	3037347.129720464464	6
0	178576	3037457.286040820351	7
0	178578	3037463.721577836845	8
0	178580	3037551.016613088738	9
0	178581	3037643.96575493345	8
0	178587	3037669.304995144793	9
0	178588	3037769.9629548036	8
0	178594	3037896.509995687868	9
0	178596	3038059.073068375647	10
0	178598	3038232.888333867704	11
0	178599	3038477.112172637827	10
0	178605	3038599.03473127335	11
0	178607	3038711.067360543092	12
0	178609	3038760.634818807036	13
0	178611	3038765.787944735137	14
0	178613	3038817.88786830812	15
0	178615	3038928.261276777537	16
0	178617	3038934.146600854226	17
0	178619	3038939.845756090521	18
0	178621	3038945.411516553894	19
0	178623	3038992.852156300645	20
0	178625	3039021.933604611731	21
0	178627	3039072.022418201504	22
0	178628	3039184.799561961157	21
0	178634	3039232.453969836538	22
0	178635	3039326.00906625027	21
0	178637	3039328.096764734435	20
0	178642	3039360.677550397649	19
0	178647	3039364.403148628887	18
0	178652	3039376.434092580806	17
0	178658	3039385.712235683588	18
0	178659	3039438.72455286869	17
0	178665	3039486.962574117217	18
0	178667	3039488.277514063871	19
0	178669	3039585.903314165474	18
0	178674	3039591.841748590467	17
0	178679	3039616.02451277934	16
0	178684	3039617.224695284506	15
0	178689	3039625.587949764705	14
0	178694	3039654.423326694618	13
0	178699	3039668.320480275403	12
0	178704	3039677.054529816433	11
0	178710	3039706.394057001173	12
0	178711	3039789.098306618708	11
0	178717	3039817.035179360207	12
0	178718	3039848.700846863621	11
0	178723	3039859.523973496795	10
0	178728	3039888.138931755518	9
0	178734	3039921.853228145298	10
0	178736	3039984.697779123616	11
0	178737	3039995.122933124824	10
0	178742	3040028.447966844486	9
0	178747	3040061.7543492976	8
0	178752	3040071.574259728011	7
0	178758	3040085.820850236104	8
0	178763	3040135.921361957614	7
0	178768	3040154.311585383411	6
0	178773	3040200.616101537478	5
0	178780	3040222.35292533216	6
0	178782	3040244.392748942001	7
0	178783	3040332.030114606428	6
0	178788	3040431.607470996038	5
0	178794	3040595.442016634164	6
0	178796	3040705.97210300015	7
0	178798	3040759.713086300954	8
0	178799	3040835.504405085965	7
0	178804	3040836.28969418645	6
0	178810	3040854.949967624098	7
0	178812	3040855.725258469077	8
0	178813	3040903.375965413145	7
0	178819	3041015.74765584486	8
0	178821	3041149.56529365437	9
0	178823	3041149.965164080078	10
0	178825	3041200.168225651791	11
0	178826	3041224.537816475443	10
0	178828	3041257.62970630477	9
0	178833	3041258.352258819418	8
0	178838	3041271.693882739511	7
0	178843	3041288.682884510977	6
0	178852	3041317.39656232435	5
0	178857	3041343.077329008187	4
0	178862	3041354.411093474929	3
0	178867	3041367.094397421953	2
0	178872	3041389.23994911014	1
0	178877	3041471.742286067513	0
0	178883	3041561.139042280549	1
0	178885	3041638.817763171233	2
0	178887	3041657.915788031656	3
0	178889	3041660.625349767213	4
0	178890	3041723.013440239627	3
0	178895	3041748.03125771451	2
0	178900	3041778.357015946315	1
0	178905	3041783.544494947129	0
0	178925	3041988.420601647839	1
0	178926	3042012.231378107892	0
0	178932	3042047.351476886147	1
0	178933	3042072.079615166962	0
0	178953	3042363.790822764548	1
0	178954	3042405.355941414209	0
0	178974	3042811.619389880514	1
0	178976	3042815.261508229973	2
0	178977	3042845.728539322965	1
0	178982	3042963.81618156362	0
0	178988	3042982.917533233326	1
0	178989	3043046.052632559265	0
0	178995	3043072.843040078035	1
0	178996	3043131.671242070149	0
0	179044	3043755.655148939749	1
0	179046	3043760.30108022669	2
0	179047	3043766.663568092425	1
0	179053	3043781.292987916069	2
0	179054	3043836.550630212838	1
0	179059	3043844.265891207001	0
0	179079	3044335.644755328587	1
0	179080	3044384.998193913889	0
0	179114	3044885.941216433949	1
0	179115	3044900.608690370501	0
0	179142	3045555.520969301533	1
0	179143	3045579.825495576345	0
0	179149	3045594.197437154229	1
0	179150	3045637.474093196347	0
0	179170	3046078.450581659455	1
0	179171	3046130.200020223001	0
0	179198	3046610.848582202069	1
0	179199	3046615.306277511205	0
0	179276	3047978.832098300807	1
0	179278	3047995.079852719172	2
0	179280	3048250.592664880176	3
0	179282	3048286.266078690548	4
0	179284	3048381.713186839277	5
0	179286	3048447.888796406166	6
0	179288	3048482.840493663196	7
0	179289	3048749.857655731249	6
0	179294	3048845.54253832771	5
0	179296	3048847.813731439913	4
0	179301	3048865.835161373938	3
0	179306	3048897.483201166872	2
0	179311	3048910.908222458428	1
0	179316	3048923.256586190808	0
0	179340	3049191.291668353936	1
0	179341	3049240.2556139129	0
0	179383	3049794.2980026003	1
0	179385	3049835.957116982978	2
0	179387	3049845.607261300266	3
0	179389	3049898.074314356377	4
0	179391	3050033.182562163245	5
0	179392	3050059.685684483452	4
0	179395	3050060.844815347065	3
0	179403	3050114.675227242074	4
0	179405	3050214.999692678583	5
0	179407	3050259.324100012685	6
0	179409	3050281.458042049347	7
0	179410	3050371.255696788762	6
0	179412	3050380.560263321125	5
0	179417	3050403.945461060737	4
0	179422	3050423.160201390167	3
0	179427	3050445.184486029432	2
0	179432	3050445.427408686509	1
0	179441	3050462.704095476618	0
0	179462	3050683.617524105623	1
0	179464	3050737.459872525765	2
0	179466	3050803.69556073608	3
0	179468	3050896.572539997955	4
0	179470	3051006.674700983348	5
0	179471	3051046.06209011412	4
0	179473	3051086.399719492336	3
0	179479	3051102.594831027915	4
0	179480	3051140.215071997202	3
0	179486	3051164.933010588852	4
0	179487	3051181.997318788417	3
0	179491	3051182.183969170806	4
0	179494	3051206.137605821194	3
0	179499	3051237.762300970584	2
0	179504	3051275.000949994427	1
0	179509	3051281.140466789231	0
0	179515	3051421.896231420048	1
0	179516	3051448.876793944597	0
0	179540	3051794.643458946764	1
0	179541	3051822.475170255797	0
0	179561	3052023.823432860688	1
0	179563	3052031.583722785555	2
0	179565	3052032.690634276503	3
0	179566	3052054.873259750883	2
0	179571	3052092.33569712925	1
0	179577	3052111.92593145822	2
0	179579	3052145.117245598894	3
0	179580	3052151.354297626908	2
0	179585	3052171.406255632447	1
0	179591	3052197.502379338734	2
0	179593	3052209.889830770522	3
0	179594	3052211.745416669468	2
0	179599	3052283.684700748631	1
0	179605	3052298.714689951398	2
0	179606	3052321.401100490439	1
0	179611	3052334.916923168851	0
0	179646	3052678.349944095692	1
0	179648	3052937.665737381079	2
0	179649	3053158.352189875187	1
0	179655	3053232.995018418623	2
0	179657	3053264.322968048157	3
0	179658	3053266.011504433969	2
0	179664	3053352.65821191166	3
0	179666	3053368.946419586731	4
0	179668	3053400.412947866338	5
0	179670	3053420.970480635278	6
0	179672	3053596.35229515412	7
0	179674	3053614.737903298671	8
0	179675	3053646.887781184071	7
0	179677	3053699.024745503686	6
0	179682	3053745.359001666315	5
0	179687	3053810.442691527766	4
0	179692	3053855.479166949665	3
0	179697	3053877.746680317291	2
0	179703	3053905.680729898324	3
0	179704	3053920.943904495862	2
0	179709	3053969.018596170774	1
0	179715	3053972.942522102782	2
0	179717	3053978.669678259474	3
0	179718	3053983.3092588916	2
0	179727	3054042.662992648233	1
0	179733	3054250.200836243274	0
0	179743	3054347.835075010329	1
0	179744	3054365.763098071176	0
0	179755	3054548.156443162344	1
0	179756	3054611.080889467761	0
0	179762	3054748.178177462854	1
0	179764	3054943.714088930065	2
0	179766	3054964.981863605357	3
0	179767	3054983.45359862699	2
0	179772	3055065.978146854069	1
0	179777	3055149.840380887647	0
0	179790	3055926.100088993993	1
0	179791	3055975.584004045735	0
0	179797	3056096.718809181728	1
0	179798	3056109.88857768897	0
0	179818	3056879.988484545994	1
0	179819	3056956.163409685375	0
0	179825	3057003.59896429827	1
0	179827	3057156.774035732944	2
0	179829	3057263.717954791	3
0	179831	3057320.599358826862	4
0	179833	3057561.482209046261	5
0	179835	3057617.237669085043	6
0	179837	3057649.990151236384	7
0	179838	3057676.360025110066	6
0	179841	3057687.1545425438	7
0	179843	3057727.087664137846	8
0	179848	3057772.258306151677	7
0	179854	3057780.728744143351	8
0	179856	3057781.39735427428	9
0	179857	3057785.711588337528	8
0	179863	3057835.172249757187	9
0	179864	3057848.835448228223	8
0	179869	3057933.979122689898	7
0	179874	3057944.003160920243	6
0	179880	3057952.919915878559	7
0	179881	3057981.526105186062	6
0	179887	3057989.548771243025	7
0	179888	3057998.029850948069	6
0	179894	3058050.185619545407	7
0	179896	3058086.000720382838	8
0	179897	3058136.518156789845	7
0	179902	3058175.033089339134	6
0	179907	3058178.073694477511	5
0	179912	3058197.74455017993	4
0	179917	3058265.257195019252	3
0	179923	3058278.662989686232	4
0	179925	3058287.450191861227	5
0	179927	3058308.539883530742	6
0	179929	3058313.104973617123	7
0	179931	3058339.344923602753	8
0	179933	3058375.304398963714	9
0	179935	3058380.467245748219	10
0	179936	3058387.345280405258	9
0	179941	3058423.119539718642	8
0	179947	3058468.974691681787	9
0	179948	3058484.53202781736	8
0	179954	3058530.822252014572	9
0	179955	3058538.098479334272	8
0	179961	3058583.270838013182	9
0	179962	3058593.328113991855	8
0	179968	3058604.093497539472	9
0	179970	3058612.87089620231	10
0	179971	3058619.791573946938	9
0	179976	3058640.121639196106	8
0	179981	3058658.990593494855	7
0	179987	3058698.04220285409	8
0	179989	3058752.91292267745	9
0	179990	3058774.425133144242	8
0	179995	3058842.269137876672	7
0	180000	3058861.872751550929	6
0	180005	3058870.241801277247	5
0	180010	3058886.119563481776	4
0	180015	3058895.640837548262	3
0	180020	3058927.526989245997	2
0	180025	3059023.327854078047	1
0	180030	3059039.258078670211	0
0	180080	3060446.047653867404	1
0	180081	3060447.313835210884	0
0	180123	3061487.478744948685	1
0	180125	3061517.495463888867	2
0	180126	3061562.663539404152	1
0	180132	3061725.718562764767	2
0	180134	3061774.887241517169	3
0	180136	3061933.331005715759	4
0	180138	3062170.202838608576	5
0	180140	3062214.952277486463	6
0	180142	3062239.972943624242	7
0	180143	3062243.986617883235	6
0	180149	3062288.603690437759	7
0	180151	3062501.074354166331	8
0	180152	3062640.563766650705	7
0	180157	3062695.36668946597	6
0	180159	3062721.413037303988	5
0	180164	3062746.195151908794	4
0	180170	3062763.674385434517	5
0	180171	3062788.715744222203	4
0	180176	3062880.674088978548	3
0	180182	3062892.273245369478	4
0	180187	3062979.97294066835	3
0	180192	3063023.043480377961	2
0	180195	3063024.977014469901	1
0	180202	3063074.937763239818	0
0	180216	3063339.135039075955	1
0	180218	3063390.822919519273	2
0	180220	3063407.851132874173	3
0	180222	3063408.09535436817	4
0	180223	3063435.849394472091	3
0	180229	3063470.745693252442	4
0	180231	3063472.405299459768	5
0	180233	3063551.844116548512	6
0	180235	3063749.9996232974	7
0	180236	3063789.488732309992	6
0	180239	3063814.839041338665	7
0	180240	3063826.114047071195	6
0	180243	3063828.536376399442	5
0	180250	3063885.805958542202	4
0	180255	3063891.526206445865	3
0	180260	3063906.822510886232	2
0	180266	3063912.02483103034	3
0	180267	3063960.191929194602	2
0	180272	3064044.95888409522	1
0	180277	3064059.011233569543	0
0	180329	3065310.019744948835	1
0	180331	3065313.118341190755	2
0	180333	3065320.271862944718	3
0	180334	3065363.149357047222	2
0	180339	3065374.248644753172	1
0	180344	3065378.540703605137	0
0	180350	3065394.171763025049	1
0	180352	3065415.451276939281	2
0	180354	3065427.19070675399	3
0	180355	3065439.493899726924	2
0	180360	3065445.206981682144	1
0	180365	3065450.731681232695	0
0	180371	3065479.146698520231	1
0	180372	3065518.500943660542	0
0	180385	3066016.823891443874	1
0	180386	3066088.362684328615	0
0	180413	3066228.41153109088	1
0	180415	3066300.835322852683	2
0	180416	3066314.365206033765	1
0	180421	3066323.298062891965	0
0	180427	3066347.789719041052	1
0	180428	3066350.094554376904	0
0	180469	3067170.596302820391	1
0	180470	3067181.059421060467	0
0	180483	3067376.955598591523	1
0	180485	3067459.030130829977	2
0	180487	3067487.88932104356	3
0	180488	3067524.163083276338	2
0	180494	3067547.010470514301	3
0	180496	3067602.8178715747	4
0	180497	3067655.403642222494	3
0	180503	3067685.982321854601	4
0	180505	3067840.935943592075	5
0	180506	3067887.91670076616	4
0	180512	3067950.718261003814	5
0	180513	3067960.329190000117	4
0	180516	3067961.58808786393	3
0	180523	3067966.462542957039	2
0	180530	3068021.278199390978	3
0	180532	3068178.478351088424	4
0	180533	3068540.062166807252	3
0	180535	3068543.065952854158	2
0	180540	3068602.653700524558	1
0	180543	3068603.11324611955	0
0	180558	3068697.214083689919	1
0	180559	3068745.474659589333	0
0	180569	3068891.054187607718	1
0	180570	3068912.137861047093	0
0	180583	3069138.164788079596	1
0	180584	3069143.677478427106	0
0	180590	3069166.282946199267	1
0	180591	3069178.214869446659	0
0	180605	3069623.375640351137	1
0	180607	3069760.492943530699	2
0	180609	3070045.772526464957	3
0	180610	3070167.763902795683	2
0	180616	3070281.042558971126	3
0	180618	3070291.037821322399	4
0	180620	3070336.308130340793	5
0	180622	3070353.051269812734	6
0	180624	3070463.043665069488	7
0	180626	3070607.659455177287	8
0	180628	3070627.209127542218	9
0	180629	3070713.896446407981	8
0	180632	3070716.870175600168	9
0	180633	3070763.220395142136	8
0	180638	3070774.396600938301	7
0	180643	3070777.684000138899	6
0	180648	3070793.156693136343	5
0	180653	3070805.949746886687	4
0	180658	3070807.588165200969	3
0	180666	3070925.101070662328	4
0	180670	3070952.555044215621	5
0	180672	3070970.372848181934	6
0	180673	3070988.693930212803	5
0	180678	3071101.877320364009	4
0	180683	3071115.778191552399	3
0	180688	3071145.924713997516	2
0	180693	3071172.680243869761	1
0	180699	3071175.828451152833	2
0	180701	3071179.885518160792	3
0	180702	3071237.769551300783	2
0	180708	3071270.538305322428	3
0	180709	3071303.217547941353	2
0	180714	3071313.863166327766	1
0	180719	3071365.84186446617	0
0	180747	3071950.491160332886	1
0	180748	3072017.54996205192	0
0	180751	3072024.810640917233	1
0	180752	3072039.582405387458	0
0	180765	3072223.559532134426	1
0	180766	3072320.385221342677	0
0	180772	3072322.434159701906	1
0	180774	3072383.503267758266	2
0	180775	3072412.397949817632	1
0	180781	3072417.455849456348	2
0	180782	3072439.046276830285	1
0	180788	3072442.141455581124	2
0	180789	3072458.718633432605	1
0	180794	3072460.45921303696	0
0	180860	3073605.80457169871	1
0	180862	3073611.17235154154	2
0	180863	3073615.453941673788	1
0	180868	3073627.632864882471	0
0	180895	3074011.421487447793	1
0	180897	3074031.38945044704	2
0	180898	3074075.861147379172	1
0	180904	3074131.707027480257	2
0	180906	3074157.871513018671	3
0	180907	3074165.600770214501	2
0	180912	3074171.972035495222	1
0	180917	3074177.103809219566	0
0	180944	3074738.60340499805	1
0	180946	3074742.006343421263	2
0	180947	3074775.605260730333	1
0	180952	3074792.795382246071	0
0	181007	3075649.787553692952	1
0	181008	3075652.448708609398	0
0	181014	3075758.863595600576	1
0	181015	3075823.175625547974	0
0	181021	3075862.619886801949	1
0	181022	3075871.795539317472	0
0	181028	3075920.468897102161	1
0	181030	3076003.814553030619	2
0	181031	3076008.504357510711	1
0	181036	3076050.70687753832	0
0	181049	3076232.529297585347	1
0	181050	3076262.28792316009	0
0	181077	3076632.281505350099	1
0	181078	3076640.82090406481	0
0	181091	3076682.822961808858	1
0	181092	3076727.904913327027	0
0	181098	3076873.383670477494	1
0	181100	3076901.121133905606	2
0	181101	3076923.444928540935	1
0	181106	3076956.12111810672	0
0	181120	3077075.685331009455	1
0	181122	3077173.313705880538	2
0	181124	3077211.034766716445	3
0	181126	3077239.960480358631	4
0	181128	3077257.618719100082	5
0	181130	3077262.273571125734	6
0	181132	3077340.449036339644	7
0	181134	3077384.56784628042	8
0	181135	3077403.139032421147	7
0	181141	3077475.476740332513	8
0	181142	3077495.072468422304	7
0	181147	3077585.774781470391	6
0	181149	3077596.648257508483	5
0	181158	3077604.338121333163	4
0	181165	3077651.270584134402	5
0	181166	3077660.172641299699	4
0	181171	3077683.661467662886	3
0	181176	3077714.78905742413	2
0	181181	3077728.465490661757	1
0	181186	3077752.433869391079	0
0	181234	3078525.193116882097	1
0	181236	3078536.709022515558	2
0	181237	3078567.076540133829	1
0	181243	3078580.048350790272	2
0	181245	3078631.050662085584	3
0	181246	3078634.96426084535	2
0	181251	3078655.464758591629	1
0	181257	3078686.241215430826	2
0	181259	3078750.538585388168	3
0	181260	3078777.837666231626	2
0	181265	3078806.340010275283	1
0	181270	3078809.810782001624	0
0	181276	3078825.098067207578	1
0	181277	3078878.311859049979	0
0	181318	3079647.167706809613	1
0	181319	3079761.034842850213	0
0	181325	3079766.421284335581	1
0	181326	3079796.021991033743	0
0	181346	3079993.434253990602	1
0	181347	3079998.881575178092	0
0	181367	3080528.618281313733	1
0	181369	3080584.370771603853	2
0	181370	3080606.96819806559	1
0	181375	3080653.695993360964	0
0	181402	3080866.641540221538	1
0	181403	3080893.911557134735	0
0	181463	3082223.259618764851	1
0	181464	3082368.443641056124	0
0	181485	3082818.863326936419	1
0	181486	3082822.211471303322	0
0	181513	3083279.796254940339	1
0	181515	3083281.873045299231	2
0	181516	3083337.81982850675	1
0	181521	3083349.567868629594	0
0	181527	3083377.125876565187	1
0	181528	3083402.474756815262	0
0	181555	3084144.507967193887	1
0	181556	3084147.45493892368	0
0	181569	3084261.37628869719	1
0	181570	3084285.676515450888	0
0	181618	3085028.505547633099	1
0	181619	3085115.685943857942	0
0	181653	3085764.996858378146	1
0	181654	3085832.113775434264	0
0	181681	3086311.570318108502	1
0	181682	3086359.239088779914	0
0	181717	3087060.482684663021	1
0	181719	3087105.759094344763	2
0	181721	3087116.814750956482	3
0	181723	3087191.021929450388	4
0	181724	3087233.436479932061	3
0	181729	3087251.584138715087	2
0	181734	3087272.908003011607	1
0	181739	3087287.024149565278	0
0	181742	3087325.866685014797	1
0	181743	3087357.686534834992	0
0	181816	3088662.435867307556	1
0	181817	3088671.179483268872	0
0	181837	3089125.324021775152	1
0	181838	3089140.171761321779	0
0	181872	3089579.542024540262	1