version 2
run Simulations-24-20191218-11:09:16-65753
attr configname Simulations
attr datetime 20191218-11:09:16
attr experiment Simulations
attr inifile omnetpp.ini
attr iterationvars "$seed=7, $0=12000"
attr iterationvarsf seed=7,12000-
attr measurement "$seed=7, $0=12000"
attr network WifiCelNetPassiveQueue
attr processid 65753
attr repetition 0
attr replication #0
attr resultdir results/Simulations/omnet
attr runnumber 24
attr seedset 7
itervar seed 7
param **.numJobs 10000
param *.OFFLOAD.deadline exponential(12000s)
param *.source.interArrivalTime exponential(120s)
param *.WIFI.serviceTime exponential(40s)
param *.CELL.serviceTime exponential(400s)
param *.OFFLOAD.switchToWi exponential(1524s)
param *.OFFLOAD.switchToCel exponential(3120s)
param *.LOCAL.serviceTime exponential(5s)
param *.REMOTE.serviceTime exponential(1s)

vector 0 WifiCelNetPassiveQueue.OFFLOAD queueLength:vector ETV
attr interpolationmode sample-hold
attr title "queue length, vector"
vector 1 WifiCelNetPassiveQueue.WIFI serviceTime:vector ETV
attr interpolationmode none
attr title "wifi Service, vector"
attr unit s
vector 2 WifiCelNetPassiveQueue.WIFI responseTime:vector ETV
attr interpolationmode none
attr title "Response Time, vector"
attr unit s
vector 3 WifiCelNetPassiveQueue.REMOTE serviceTime:vector ETV
attr interpolationmode none
attr title "wifi Service, vector"
attr unit s
vector 4 WifiCelNetPassiveQueue.REMOTE responseTime:vector ETV
attr interpolationmode none
attr title "Response Time, vector"
attr unit s
vector 5 WifiCelNetPassiveQueue.sink lifeTime:vector ETV
attr interpolationmode none
attr title "lifetime of arrived jobs, vector"
attr unit s
vector 6 WifiCelNetPassiveQueue.CELL serviceTime:vector ETV
attr interpolationmode none
attr title "wifi Service, vector"
attr unit s
vector 7 WifiCelNetPassiveQueue.CELL responseTime:vector ETV
attr interpolationmode none
attr title "Response Time, vector"
attr unit s
vector 8 WifiCelNetPassiveQueue.OFFLOAD storeCelTime:vector ETV
attr interpolationmode none
attr title "Time in Cell, vector"
attr unit s
vector 9 WifiCelNetPassiveQueue.OFFLOAD storeDeadline:vector ETV
attr interpolationmode none
attr title "deadline, vector"
attr unit s
vector 10 WifiCelNetPassiveQueue.OFFLOAD storeWifiTime:vector ETV
attr interpolationmode none
attr title "Time in Wifi, vector"
attr unit s
vector 11 WifiCelNetPassiveQueue.REMOTE queueLength:vector ETV
attr interpolationmode sample-hold
attr title "queue length, vector"
vector 12 WifiCelNetPassiveQueue.LOCAL serviceTime:vector ETV
attr interpolationmode none
attr title "wifi Service, vector"
attr unit s
vector 13 WifiCelNetPassiveQueue.LOCAL responseTime:vector ETV
attr interpolationmode none
attr title "Response Time, vector"
attr unit s
vector 14 WifiCelNetPassiveQueue.LOCAL queueLength:vector ETV
attr interpolationmode sample-hold
attr title "queue length, vector"
0	174158	3000382.568225170804	1
0	174159	3000399.405003266671	0
0	174191	3000964.545610957442	1
0	174193	3000969.856586894922	2
0	174194	3001144.286654217296	1
0	174200	3001385.093548258764	2
0	174202	3001403.345047930478	3
0	174204	3001482.295168159952	4
0	174206	3001598.2254207433	5
0	174207	3001723.010144970481	4
0	174210	3001724.798738026978	3
0	174215	3001763.101113398161	4
0	174216	3001941.725459304112	3
0	174221	3001943.360697206534	2
0	174227	3001968.404599666812	3
0	174228	3002049.281317119529	2
0	174234	3002087.743342941966	3
0	174235	3002119.385402322358	2
0	174245	3002208.624770007361	1
0	174247	3002249.651710654427	0
0	174272	3002657.533842295132	1
0	174273	3002713.896275787147	0
0	174279	3002751.356594289091	1
0	174281	3002950.766708481011	2
0	174283	3003144.976377909256	3
0	174285	3003147.840021094157	4
0	174287	3003186.418917230736	5
0	174288	3003207.203182472335	4
0	174294	3003681.672386290502	5
0	174296	3003692.777789932232	6
0	174298	3003700.535896333363	7
0	174300	3003722.451620300945	8
0	174301	3003728.598215538572	7
0	174303	3003772.432754678086	6
0	174308	3003814.547551735539	5
0	174313	3003828.630679892583	4
0	174318	3003939.634295336386	3
0	174327	3003953.835000321576	2
0	174332	3003988.049908248972	1
0	174337	3004007.943881851032	0
0	174401	3005684.523563194402	1
0	174403	3005714.61393761858	2
0	174404	3005737.931149364671	1
0	174409	3005762.758406085274	0
0	174436	3006394.661000894814	1
0	174437	3006419.161967390388	0
0	174443	3006447.256175586239	1
0	174444	3006458.6088221274	0
0	174457	3006643.558772744723	1
0	174459	3006647.354161056453	2
0	174460	3006679.812167248073	1
0	174466	3006691.876402700876	2
0	174467	3006776.5264231344	1
0	174472	3006794.748798986837	0
0	174478	3006797.940764701221	1
0	174479	3006881.524680648666	0
0	174506	3007426.889623424963	1
0	174507	3007474.519052033873	0
0	174569	3008715.31653098349	1
0	174570	3008824.300358160553	0
0	174626	3009578.525469926505	1
0	174628	3009694.021837069116	2
0	174630	3009702.106133448075	3
0	174631	3009745.864056600173	2
0	174637	3009832.191887116537	3
0	174638	3009978.329608898586	2
0	174643	3010003.831997920002	1
0	174648	3010141.383364038883	0
0	174661	3010391.798175356542	1
0	174663	3010434.908294782423	2
0	174665	3010603.616910403532	3
0	174667	3010604.156605149007	4
0	174669	3010766.422892362447	5
0	174670	3010770.444404227741	4
0	174675	3011092.050002888687	3
0	174681	3011271.599868295114	4
0	174682	3011287.343571414354	3
0	174688	3011330.268595444068	4
0	174689	3011371.395380432145	3
0	174692	3011371.578063367211	4
0	174698	3011503.57957171879	5
0	174699	3011517.015506927152	4
0	174704	3011571.025059118074	3
0	174709	3011573.845837095107	2
0	174715	3011633.338215605489	3
0	174716	3011693.234609784476	2
0	174721	3011735.944253267325	1
0	174726	3011769.723801389475	0
0	174767	3012259.339738024402	1
0	174768	3012293.853204711719	0
0	174774	3012305.481004199181	1
0	174775	3012315.553230955591	0
0	174802	3012897.577321277541	1
0	174803	3012949.519204315211	0
0	174809	3012958.000033632295	1
0	174810	3013012.41344139674	0
0	174880	3014916.413073784956	1
0	174881	3014975.514528463402	0
0	174887	3015068.265921038585	1
0	174889	3015119.096196711315	2
0	174890	3015120.787006964645	1
0	174892	3015127.288093347623	0
0	174905	3015355.263641315769	1
0	174906	3015385.459119756785	0
0	174912	3015396.357089621914	1
0	174913	3015411.814427734291	0
0	174919	3015437.045442015732	1
0	174920	3015445.578192491731	0
0	174986	3016763.933040328307	1
0	174987	3016798.410285079408	0
0	175070	3017895.519369976516	1
0	175071	3017904.417500526836	0
0	175112	3019278.601770189677	1
0	175113	3019313.827697818664	0
0	175154	3020228.064993585658	1
0	175155	3020232.210400093789	0
0	175161	3020295.637858277131	1
0	175162	3020329.967751062363	0
0	175175	3020465.370464446344	1
0	175176	3020503.213591769608	0
0	175217	3021381.56784104986	1
0	175218	3021385.768320932984	0
0	175231	3021565.030923584501	1
0	175232	3021612.176372765255	0
0	175245	3021885.71608687049	1
0	175246	3021904.318831843827	0
0	175266	3022444.912413605996	1
0	175267	3022446.130275368028	0
0	175308	3023663.363856515848	1
0	175309	3023673.943447835779	0
0	175315	3023687.96915511473	1
0	175317	3023693.966056308713	2
0	175318	3023709.397900388714	1
0	175324	3023758.08083543926	2
0	175326	3023833.86755462918	3
0	175327	3023862.438334261302	2
0	175332	3023956.153613941585	1
0	175338	3023964.740360973177	2
0	175339	3024014.671155809914	1
0	175345	3024030.120749367195	2
0	175346	3024042.514946585453	1
0	175351	3024054.125952411633	0
0	175406	3025169.144181628432	1
0	175407	3025193.21463811017	0
0	175413	3025196.738169932563	1
0	175414	3025204.218202991688	0
0	175441	3025968.480560605514	1
0	175442	3025981.717599857541	0
0	175511	3027232.31311901824	1
0	175512	3027283.660437578752	0
0	175532	3027492.872181825038	1
0	175533	3027500.275682646409	0
0	175568	3027966.630087589164	1
0	175570	3027980.98287930666	2
0	175572	3028138.700985921544	3
0	175574	3028153.851677515329	4
0	175576	3028322.416640726629	5
0	175578	3028351.072080674953	6
0	175580	3028503.225984844473	7
0	175582	3028591.98478895364	8
0	175584	3028626.783410076704	9
0	175586	3028648.421149779479	10
0	175588	3028657.732189356416	11
0	175590	3028810.646347477335	12
0	175592	3028881.657672522922	13
0	175594	3029016.040967520048	14
0	175595	3029189.923161482227	13
0	175600	3029203.64259664063	12
0	175602	3029204.864176357084	11
0	175610	3029385.633607172941	12
0	175612	3029402.752817681324	13
0	175614	3029586.649802930879	14
0	175615	3029664.164878732359	13
0	175618	3029666.891337427603	14
0	175619	3029670.682711768732	13
0	175624	3029698.563197062423	12
0	175630	3029761.792384625154	11
0	175635	3029850.4514902202	10
0	175640	3029869.393934909449	9
0	175646	3029875.93748671268	10
0	175647	3029883.560711235072	9
0	175652	3029896.170952324127	8
0	175655	3029896.360740360018	7
0	175663	3029906.035591183531	8
0	175665	3029906.626563112047	9
0	175666	3029933.693020857684	8
0	175671	3029940.15798953808	7
0	175676	3029948.647007102098	6
0	175681	3029978.782721486043	5
0	175692	3030155.256936367861	6
0	175693	3030393.153161001199	5
0	175697	3030415.459763132835	4
0	175703	3030533.688832405412	5
0	175704	3030557.843393862595	4
0	175708	3030584.368384448449	5
0	175714	3030653.786132107318	6
0	175716	3030736.883677348785	7
0	175718	3030943.037723268138	8
0	175719	3030987.452482838963	7
0	175725	3031078.318881389784	8
0	175726	3031101.956876498521	7
0	175731	3031186.560570182667	6
0	175733	3031307.220054416295	5
0	175739	3031323.839022928531	6
0	175744	3031337.168960767558	5
0	175749	3031341.000572026897	4
0	175754	3031370.861904931489	3
0	175760	3031424.395432431922	4
0	175762	3031446.909561077462	5
0	175764	3031454.120440010171	6
0	175765	3031510.540197683303	5
0	175770	3031513.617542491663	4
0	175775	3031520.011906628548	3
0	175780	3031577.277563415749	2
0	175785	3031595.393754079318	1
0	175790	3031596.293241595024	0
0	175838	3032944.425652817872	1
0	175839	3032952.756608393528	0
0	175880	3034160.063072620197	1
0	175881	3034198.913592375516	0
0	175901	3035040.32773769381	1
0	175902	3035046.25806612848	0
0	175943	3035835.628088457355	1
0	175944	3035891.304794534536	0
0	175985	3036855.097116935549	1
0	175986	3036927.810022420755	0
0	176041	3037573.787446292828	1
0	176042	3037649.51150266814	0
0	176104	3038592.260990255298	1
0	176105	3038631.401581097916	0
0	176126	3039316.4803181469	1
0	176128	3039334.242810711861	2
0	176129	3039358.957006302022	1
0	176135	3039392.527007410345	2
0	176136	3039460.60233590365	1
0	176142	3039472.972915155132	2
0	176143	3039590.305110662868	1
0	176149	3039636.329429606466	2
0	176151	3039722.807382673087	3
0	176153	3039936.550222743818	4
0	176155	3040086.544372197698	5
0	176156	3040109.320003825096	4
0	176162	3040215.48369911663	5
0	176163	3040337.020034199155	4
0	176165	3040342.092497991018	3
0	176171	3040355.675146172289	4
0	176172	3040379.969456651492	3
0	176177	3040388.181690523997	2
0	176182	3040415.294421616063	1
0	176187	3040419.103111507262	0
0	176211	3040617.255871208641	1
0	176213	3040649.371791363211	2
0	176214	3040722.029656042297	1
0	176219	3040729.430042485687	0
0	176232	3040862.149936294518	1
0	176233	3040868.241060198766	0
0	176260	3041349.528519243202	1
0	176261	3041356.554233631945	0
0	176295	3042167.149527569261	1
0	176297	3042250.313384812453	2
0	176298	3042324.121873476603	1
0	176304	3042332.390775182326	2
0	176306	3042343.184771931849	3
0	176307	3042349.526352428399	2
0	176312	3042373.569752474443	1
0	176318	3042388.625172807625	2
0	176319	3042392.983702850811	1
0	176325	3042511.949840814424	2
0	176326	3042533.040638282555	1
0	176332	3042553.429994963855	2
0	176333	3042564.849350830804	1
0	176338	3042570.96895965937	0
0	176365	3042903.301259142314	1
0	176366	3042950.697005091051	0
0	176372	3042969.43595833669	1
0	176373	3042994.196633079511	0
0	176414	3044023.459110213255	1
0	176415	3044056.804089972965	0
0	176442	3044394.431775949655	1
0	176443	3044501.422193205688	0
0	176508	3046000.548593621696	1
0	176510	3046037.497374528689	2
0	176511	3046133.395530776598	1
0	176517	3046151.93044681771	2
0	176519	3046213.881537311203	3
0	176521	3046215.851514565534	4
0	176523	3046270.306505731404	5
0	176524	3046343.027677428235	4
0	176529	3046501.212177839681	3
0	176535	3046518.605346562929	4
0	176536	3046540.222506592699	3
0	176541	3046643.332024881486	2
0	176547	3046674.221333694859	3
0	176549	3046692.273669827615	4
0	176550	3046700.018968545085	3
0	176556	3046781.033723530908	4
0	176557	3046845.054871134154	3
0	176563	3046847.455396469527	4
0	176565	3047044.426337569267	5
0	176567	3047051.227686317536	6
0	176569	3047180.000237673897	7
0	176570	3047269.338362772913	6
0	176576	3047433.610209604124	7
0	176578	3047528.827640190192	8
0	176580	3047741.247727057225	9
0	176581	3047831.064040770609	8
0	176587	3047956.05663967005	9
0	176588	3047969.477913672903	8
0	176593	3048031.041856959111	7
0	176598	3048226.392944365822	6
0	176601	3048227.247376827495	7
0	176603	3048240.179954931021	8
0	176604	3048253.985918511295	7
0	176609	3048283.149743493761	6
0	176615	3048358.42875170575	7
0	176616	3048363.743134362213	6
0	176622	3048383.761541406226	7
0	176623	3048389.001881441766	6
0	176628	3048418.998876421837	5
0	176633	3048425.223613911443	4
0	176639	3048428.789786167764	5
0	176640	3048435.017681528758	4
0	176646	3048442.462426389082	5
0	176647	3048480.632794246937	4
0	176652	3048496.296547537955	3
0	176658	3048518.269379344421	4
0	176660	3048546.80361346022	5
0	176661	3048578.937234163594	4
0	176665	3048582.638968905854	5
0	176669	3048637.915964602731	6
0	176670	3048638.028084832115	5
0	176675	3048646.640871868148	4
0	176680	3048704.595938274188	3
0	176685	3048799.736888462746	2
0	176690	3048809.747491488997	1
0	176695	3048845.177880836126	0
0	176701	3048875.427805480126	1
0	176703	3048884.176861434769	2
0	176705	3048893.708674010072	3
0	176706	3048903.291057368143	2
0	176711	3048937.414742172802	1
0	176716	3048938.184322203909	0
0	176729	3049097.284417202905	1
0	176730	3049104.232688313774	0
0	176796	3050757.048670792665	1
0	176797	3050774.063483588765	0
0	176866	3052185.502072930812	1
0	176868	3052191.163175837113	2
0	176869	3052237.394486962344	1
0	176874	3052283.922709140147	0
0	176887	3052596.057631320295	1
0	176888	3052609.017917239759	0
0	176915	3053157.473217197358	1
0	176917	3053175.347165667906	2
0	176918	3053182.408894588631	1
0	176923	3053186.691245307899	0
0	176986	3054111.398714997605	1
0	176988	3054219.789207485217	2
0	176989	3054228.837496721385	1
0	176994	3054311.732090843523	0
0	177029	3055475.150101768154	1
0	177030	3055492.664590799034	0
0	177057	3056048.346164969974	1
0	177058	3056053.483853482343	0
0	177071	3056281.776907460211	1
0	177072	3056313.212595309485	0
0	177099	3057284.535320350842	1
0	177100	3057324.112950281686	0
0	177176	3058242.740785808802	1
0	177178	3058279.111664736609	2
0	177179	3058313.698303275612	1
0	177184	3058348.55224048622	0
0	177190	3058356.061048290778	1
0	177191	3058374.336414171044	0
0	177211	3058590.574153897727	1
0	177212	3058595.597199210196	0
0	177225	3058917.303746994339	1
0	177226	3058919.616520016006	0
0	177239	3058935.917736139482	1
0	177240	3058968.816596934501	0
0	177254	3059251.783684102264	1
0	177256	3059292.763358773585	2
0	177257	3059327.183347734345	1
0	177262	3059389.092220300083	0
0	177268	3059465.590191458546	1
0	177269	3059550.102382406784	0
0	177275	3059654.007836901194	1
0	177276	3059717.963055174527	0
0	177282	3059748.34525014229	1
0	177283	3059751.99332567818	0
0	177293	3059826.073698340541	1
0	177294	3059831.901246123679	0
0	177354	3061854.219577731074	1
0	177356	3061887.751717882843	2
0	177358	3061924.137790469418	3
0	177359	3061982.711779391503	2
0	177363	3061983.029851150687	3
0	177367	3062006.471498979088	4
0	177369	3062064.33845257898	5
0	177371	3062077.065210099819	6
0	177373	3062159.564427850607	7
0	177374	3062315.776166497041	6
0	177380	3062337.378676354291	7
0	177382	3062403.538697816424	8
0	177384	3062488.504759319352	9
0	177386	3062527.402112521476	10
0	177388	3062778.067111121865	11
0	177390	3062797.74594170624	12
0	177392	3062925.703201910561	13
0	177394	3062966.343421613169	14
0	177396	3062968.140248110839	15
0	177397	3063152.573797170847	14
0	177403	3063280.981806043134	15
0	177405	3063321.333942181714	16
0	177406	3063356.721641187491	15
0	177412	3063602.060515955755	16
0	177413	3063692.872986002469	15
0	177415	3063697.600182587665	14
0	177420	3063717.753709241689	13
0	177425	3063744.366559577222	12
0	177431	3063753.95404398741	13
0	177432	3063792.542053715834	12
0	177437	3063813.978150350724	11
0	177442	3063826.745055362248	10
0	177447	3063880.638028116148	9
0	177452	3063886.05831544506	8
0	177458	3063892.650813897227	9
0	177464	3063928.777412678156	10
0	177466	3063947.732668220268	11
0	177468	3063984.596382721106	12
0	177470	3063997.905441248959	13
0	177471	3064054.68786732516	12
0	177476	3064062.416601350527	11
0	177481	3064131.211212289234	10
0	177486	3064171.995514645649	9
0	177491	3064191.599045795378	8
0	177496	3064252.226408166988	7
0	177502	3064258.055128080165	8
0	177503	3064294.697951426947	7
0	177508	3064333.22399213306	6
0	177513	3064358.663912518969	5
0	177518	3064395.191971206931	4
0	177523	3064412.669864824059	3
0	177528	3064413.141283568694	2
0	177533	3064430.424806159828	1
0	177538	3064444.651891268588	0
0	177558	3064640.830537277672	1
0	177559	3064711.286441337312	0
0	177579	3064774.514853485491	1
0	177580	3064843.836477777967	0
0	177642	3066337.411617199211	1
0	177643	3066398.510191960944	0
0	177678	3067702.289784063675	1
0	177679	3067803.94833243093	0
0	177685	3067910.937189424304	1
0	177687	3068076.515824176704	2
0	177689	3068343.096792663918	3
0	177690	3068343.83523662742	2
0	177696	3068433.708645827359	3
0	177698	3068492.337686185083	4
0	177700	3068502.517633812624	5
0	177702	3068619.85781110151	6
0	177704	3068718.580238725157	7
0	177706	3068765.674326252719	8
0	177708	3068795.507129861688	9
0	177710	3069013.165988418079	10
0	177711	3069094.279671524486	9
0	177717	3069107.792142822209	10
0	177719	3069168.33319579576	11
0	177721	3069183.777951182037	12
0	177723	3069239.872481001265	13
0	177724	3069273.200543477061	12
0	177729	3069419.453886092376	11
0	177734	3069527.30018588616	10
0	177739	3069567.51971457473	9
0	177745	3069579.462510332432	10
0	177746	3069870.621987369077	9
0	177752	3069938.125842985108	10
0	177754	3069988.182516925655	11
0	177755	3070004.881719969067	10
0	177761	3070011.112458758071	11
0	177763	3070058.431297147592	12
0	177764	3070099.898677940795	11
0	177770	3070134.31193275097	12
0	177772	3070223.484344762581	13
0	177774	3070275.805001579692	14
0	177776	3070310.537507002399	15
0	177777	3070389.814349842868	14
0	177783	3070482.360053133709	15
0	177784	3070528.468716852936	14
0	177790	3070629.47722998609	15
0	177791	3070819.532154256908	14
0	177796	3070834.126253289511	15
0	177798	3070999.958590701521	16
0	177800	3071233.293830010463	17
0	177802	3071269.410228808801	18
0	177804	3071274.294164782932	19
0	177806	3071317.379717782956	20
0	177807	3071361.733254202529	19
0	177809	3071421.849907308803	18
0	177814	3071429.983392821877	17
0	177820	3071500.357777858048	18
0	177821	3071541.272770406939	17
0	177826	3071549.38842836354	16
0	177832	3071581.937473241252	17
0	177833	3071601.000454368893	16
0	177838	3071637.309375140975	15
0	177841	3071638.016121369364	14
0	177848	3071691.438086331917	13
0	177853	3071693.6717209013	12
0	177858	3071725.280471305861	11
0	177863	3071775.791906251435	10
0	177872	3071861.419421962555	9
0	177875	3071861.611608430597	8
0	177882	3071880.913792530598	7
0	177887	3071929.905841725548	6
0	177892	3071963.092767397135	5
0	177897	3071966.815369910195	4
0	177902	3072027.548240713897	3
0	177907	3072140.409219528349	2
0	177912	3072161.916720852206	1
0	177918	3072201.576576701587	2
0	177919	3072236.804948159198	1
0	177924	3072237.485422714489	0
0	177951	3072631.868597843064	1
0	177952	3072718.526624695797	0
0	177958	3072819.426691508445	1
0	177960	3072821.269447773164	2
0	177961	3072854.121062587809	1
0	177966	3072855.859113402249	0
0	177979	3072928.029105857222	1
0	177980	3072988.606405076898	0
0	178007	3073394.704864557322	1
0	178008	3073398.588301296136	0
0	178021	3073772.578456786588	1
0	178023	3073787.955590893238	2
0	178024	3073819.141612221614	1
0	178029	3073835.003358721423	0
0	178056	3074435.918524489512	1
0	178057	3074583.263151191798	0
0	178063	3074605.172396087506	1
0	178064	3074691.294711589174	0
0	178113	3075715.681849126019	1
0	178115	3075761.978475079456	2
0	178117	3075869.238265463011	3
0	178119	3075882.312027797723	4
0	178121	3076121.193567642428	5
0	178123	3076351.290957100674	6
0	178125	3076437.452220631156	7
0	178127	3076596.052072516709	8
0	178128	3076656.38864519446	7
0	178133	3076722.533200363859	6
0	178135	3076732.775622531687	5
0	178141	3076736.424478493132	6
0	178143	3076795.72556598918	7
0	178145	3076844.935939512652	8
0	178146	3076847.23642756319	7
0	178151	3076868.584443325041	6
0	178156	3076870.842652646024	5
0	178161	3076875.827664648096	4
0	178171	3076925.278677781022	5
0	178172	3076934.820522935633	4
0	178177	3076944.656682986404	3
0	178182	3076961.106184704039	2
0	178187	3076984.654056842367	1
0	178192	3076988.940663340296	0
0	178212	3077238.769325893115	1
0	178213	3077274.357011241187	0
0	178226	3077327.224957108442	1
0	178227	3077526.404485781927	0
0	178283	3078564.461439282033	1
0	178285	3078598.101874523113	2
0	178286	3078658.139169533739	1
0	178291	3078777.316614337146	0
0	178297	3078878.495203567836	1
0	178298	3078922.985276111832	0
0	178354	3079895.631396756471	1
0	178355	3079913.467327651289	0
0	178382	3080525.083684105558	1
0	178384	3080561.329291587659	2
0	178385	3080572.75070290378	1
0	178391	3080634.73173650391	2
0	178392	3080640.995188898475	1
0	178397	3080675.460681758314	0
0	178403	3080691.405758503545	1
0	178405	3080716.75019624004	2
0	178407	3080739.100635031327	3
0	178408	3080768.962339138631	2
0	178413	3080805.591244949975	1
0	178418	3080830.375900770188	0
0	178439	3081123.241247212373	1
0	178441	3081204.522297840969	2
0	178443	3081242.73478136211	3
0	178445	3081438.425326288794	4
0	178446	3081468.11677030178	3
0	178452	3081516.150906905347	4
0	178454	3081532.469074927019	5
0	178456	3081550.503153168339	6
0	178458	3081627.287783913873	7
0	178459	3081666.729194301772	6
0	178465	3081727.124455714806	7
0	178466	3081748.983787689117	6
0	178468	3081797.011605445589	5
0	178473	3081818.021627214764	4
0	178479	3081850.754583053396	5
0	178480	3081856.366613709751	4
0	178486	3081858.523108985985	5
0	178487	3081902.715594658958	4
0	178490	3081904.431957583836	3
0	178497	3081937.505990699067	2
0	178502	3081963.02767374119	1
0	178507	3081989.289281169094	0
0	178527	3082318.875249425431	1
0	178528	3082374.530998177362	0
0	178552	3082591.236515401277	1
0	178553	3082611.040572220113	0
0	178573	3083137.943268035089	1
0	178575	3083180.029567084411	2
0	178577	3083183.126321144842	3
0	178578	3083189.905432350648	2
0	178584	3083214.045777347683	3
0	178586	3083236.105171974825	4
0	178587	3083275.877476507925	3
0	178593	3083360.90757231293	2
0	178598	3083365.667624302807	1
0	178604	3083378.412884927585	2
0	178605	3083389.404165774167	1
0	178610	3083536.967077124573	0
0	178666	3084400.353754502488	1
0	178668	3084401.793467769932	2
0	178669	3084404.713394525283	1
0	178674	3084473.616839853696	0
0	178687	3084647.86003225265	1
0	178688	3084654.185792082194	0
0	178743	3085767.629757081941	1
0	178745	3085798.533038668407	2
0	178746	3085799.964888310464	1
0	178751	3085825.947942374095	0
0	178799	3087364.867125967206	1
0	178800	3087484.545978366472	0
0	178834	3088452.858142271938	1
0	178835	3088467.312441804892	0
0	178876	3088946.640834160915	1
0	178877	3088954.554316664833	0
0	178891	3089328.387398800064	1
0	178893	3089387.385316409202	2
0	178895	3089507.201155342364	3
0	178896	3089543.795742839522	2
0	178898	3089576.502650919697	1
0	178903	3089583.218401768078	0
0	178909	3089593.9905864548	1
0	178911	3089637.4430275595	2
0	178913	3089641.326253158022	3
0	178914	3089647.330686577139	2
0	178919	3089660.131469995359	1
0	178925	3089673.624164911641	2
0	178927	3089726.619934316778	3
0	178928	3089747.820744540734	2
0	178934	3089802.947307094502	3
0	178935	3089803.099188621679	2
0	178940	3089810.443662634667	1
0	178945	3089830.704239791003	0
0	178951	3089843.17400603255	1
0	178952	3089858.791543830132	0
0	178958	3089902.450920248873	1
0	178959	3089925.09099925868	0
0	178997	3090394.469955645261	1
0	178998	3090422.212687717828	0
0	179011	3090595.280844886765	1
0	179012	3090667.495298248419	0
0	179060	3091206.925456881321	1
0	179061	3091216.089302249955	0
0	179067	3091258.403761800417	1
0	179068	3091294.355863722861	0
0	179081	3091572.449644617605	1
0	179083	3091578.587159848334	2
0	179084	3091605.112785697282	1
0	179089	3091637.752024840026	0
0	179137	3092303.582299592212	1
0	179138	3092307.26044069798	0
0	179144	3092319.394504755079	1
0	179145	3092332.740700512285	0
0	179165	3092491.342912057261	1
0	179166	3092518.001985552135	0
0	179193	3092799.899859835073	1
0	179194	3092878.779457573215	0
0	179221	3093416.843645450772	1
0	179222	3093418.845985634151	0
0	179277	3094594.257946630931	1
0	179279	3094611.062929213543	2
0	179281	3094625.720801327885	3
0	179282	3094636.231734817243	2
0	179287	3094639.435414529645	1
0	179293	3094643.718857567489	2
0	179294	3094661.129472365515	1
0	179299	3094693.70530528212	0
0	179312	3094756.084394258574	1
0	179313	3094757.333300381391	0
0	179326	3095003.673845585532	1
0	179328	3095074.645222194197	2
0	179330	3095076.081479734222	3
0	179332	3095092.192171518962	4
0	179334	3095120.418959112813	5
0	179335	3095160.549956491637	4
0	179340	3095250.562021193344	3
0	179345	3095307.202491536307	2
0	179350	3095341.800436879952	1
0	179355	3095396.83212553837	0
0	179375	3095628.887596028542	1
0	179376	3095655.149817369475	0
0	179382	3095684.009003242672	1
0	179384	3095692.697583064816	2
0	179386	3095787.974018794847	3
0	179387	3095813.330952891693	2
0	179393	3095815.215472948588	3
0	179394	3095860.687986315003	2
0	179399	3095912.044476904564	1
0	179404	3095941.796004806282	0
0	179410	3095958.610748517933	1
0	179411	3096053.670617731056	0
0	179438	3097241.69341245488	1
0	179439	3097243.986049568732	0
0	179494	3098011.506405551095	1
0	179495	3098077.492535301942	0
0	179516	3098518.027710843475	1
0	179517	3098624.4723426595	0
0	179530	3098963.109471895698	1
0	179532	3099019.479009921415	2
0	179534	3099120.564966798676	3
0	179536	3099142.602178884368	4
0	179538	3099349.059922145796	5
0	179540	3099355.801467641337	6
0	179542	3099356.432352496962	7
0	179544	3099368.015077867103	8
0	179546	3099420.657867842332	9
0	179548	3099466.156944459147	10
0	179549	3099476.268713507731	9
0	179555	3099492.372391044526	10
0	179557	3099579.737601569496	11
0	179558	3099662.361746736847	10
0	179561	3099677.199656882652	11
0	179562	3099697.683464927116	10
0	179567	3099719.145702015541	9
0	179572	3099740.849060501015	8
0	179578	3099782.292428975002	9
0	179580	3099787.06108911926	10
0	179585	3099812.679144399537	9
0	179590	3099818.574484590783	8
0	179595	3099857.091014445763	7
0	179598	3099858.480311174546	6
0	179605	3099874.687115431422	5
0	179610	3099936.474453103339	4
0	179615	3099972.717249805309	3
0	179620	3099993.334083213218	2
0	179626	3100002.758222348147	3
0	179627	3100004.162064408798	2
0	179633	3100020.893103013457	3
0	179634	3100021.393861666547	2
0	179639	3100028.488141472113	1
0	179644	3100077.132243492989	0
0	179664	3100445.040854659898	1
0	179665	3100452.086249138122	0
0	179679	3100748.862675575553	1
0	179681	3100804.813164331732	2
0	179682	3100880.611633074687	1
0	179688	3100900.573947347937	2
0	179690	3100982.204421805401	3
0	179692	3101023.753998281982	4
0	179694	3101068.120445812616	5
0	179696	3101192.285114646892	6
0	179698	3101322.074227517156	7
0	179699	3101408.663205380459	6
0	179705	3101534.860711727142	7
0	179706	3101572.328667889179	6
0	179709	3101609.912721595258	7
0	179710	3101654.661812517856	6
0	179716	3101700.170876886995	7
0	179718	3101710.512667507767	8
0	179719	3101768.767400285598	7
0	179724	3101770.071753236743	6
0	179730	3101775.854106439279	7
0	179731	3101890.701442149706	6
0	179736	3101957.385455372813	5
0	179742	3101962.390225248166	6
0	179743	3101977.936115297609	5
0	179748	3102089.556555389564	4
0	179753	3102213.173530658438	3
0	179759	3102251.549879719267	4
0	179760	3102269.590563086013	3
0	179765	3102317.901587107142	2
0	179770	3102341.044646622518	1
0	179776	3102365.211975685201	2
0	179777	3102388.11413096424	1
0	179780	3102388.46626308632	0
0	179841	3103191.151733268089	1
0	179842	3103196.380667248783	0
0	179848	3103259.952066908028	1
0	179849	3103268.659058380475	0
0	179855	3103283.235178730822	1
0	179857	3103289.460646218199	2
0	179858	3103292.19193386474	1
0	179863	3103334.368112838932	0
0	179876	3103558.036729653003	1
0	179878	3103565.005319005621	2
0	179880	3103606.83959014677	3
0	179882	3103624.980763002396	4
0	179883	3103658.037997089689	3
0	179888	3103717.102145884862	2
0	179893	3103726.855231157449	1
0	179899	3103734.80635173154	2
0	179900	3103741.787815997731	1
0	179905	3103765.594517337745	0
0	179925	3104136.848891625891	1
0	179926	3104189.989471521185	0
0	179932	3104220.595442610529	1
0	179933	3104255.622039515652	0
0	179953	3104557.560388735212	1
0	179954	3104559.729808038092	0
0	179996	3105415.494888233562	1
0	179997	3105472.124478119504	0
0	180003	3105513.608999212972	1
0	180005	3105601.947384837878	2
0	180007	3105618.897745331522	3
0	180009	3105840.095116702358	4
0	180010	3105896.265244583231	3
0	180016	3106036.914923227707	4
0	180018	3106043.179028008068	5
0	180020	3106082.314980005026	6
0	180021	3106084.92245067591	5
0	180026	3106114.484540538293	4
0	180032	3106136.746159307705	5
0	180034	3106179.593531395504	6
0	180036	3106443.349171543063	7
0	180037	3106481.195604944257	6
0	180042	3106641.859565032555	7
0	180044	3106674.029035004617	8
0	180045	3106751.847365622938	7
0	180051	3106819.800128609424	8
0	180053	3106928.798305885297	9
0	180055	3107030.81814900711	10
0	180057	3107143.160302816301	11
0	180059	3107277.162406422547	12
0	180060	3107362.934091862581	11
0	180066	3107368.330424205467	12
0	180067	3107481.067898650651	11
0	180073	3107540.265457583394	12
0	180075	3107663.34758037841	13