version 2
run Simulations-34-20191218-11:09:18-65753
attr configname Simulations
attr datetime 20191218-11:09:18
attr experiment Simulations
attr inifile omnetpp.ini
attr iterationvars "$seed=25, $0=4800"
attr iterationvarsf seed=25,4800-
attr measurement "$seed=25, $0=4800"
attr network WifiCelNetPassiveQueue
attr processid 65753
attr repetition 0
attr replication #0
attr resultdir results/Simulations/omnet
attr runnumber 34
attr seedset 25
itervar seed 25
param **.numJobs 10000
param *.OFFLOAD.deadline exponential(4800s)
param *.source.interArrivalTime exponential(120s)
param *.WIFI.serviceTime exponential(40s)
param *.CELL.serviceTime exponential(400s)
param *.OFFLOAD.switchToWi exponential(1524s)
param *.OFFLOAD.switchToCel exponential(3120s)
param *.LOCAL.serviceTime exponential(5s)
param *.REMOTE.serviceTime exponential(1s)

vector 0 WifiCelNetPassiveQueue.WIFI serviceTime:vector ETV
attr interpolationmode none
attr title "wifi Service, vector"
attr unit s
vector 1 WifiCelNetPassiveQueue.WIFI responseTime:vector ETV
attr interpolationmode none
attr title "Response Time, vector"
attr unit s
vector 2 WifiCelNetPassiveQueue.REMOTE serviceTime:vector ETV
attr interpolationmode none
attr title "wifi Service, vector"
attr unit s
vector 3 WifiCelNetPassiveQueue.REMOTE responseTime:vector ETV
attr interpolationmode none
attr title "Response Time, vector"
attr unit s
vector 4 WifiCelNetPassiveQueue.sink lifeTime:vector ETV
attr interpolationmode none
attr title "lifetime of arrived jobs, vector"
attr unit s
vector 5 WifiCelNetPassiveQueue.OFFLOAD storeWifiTime:vector ETV
attr interpolationmode none
attr title "Time in Wifi, vector"
attr unit s
vector 6 WifiCelNetPassiveQueue.OFFLOAD queueLength:vector ETV
attr interpolationmode sample-hold
attr title "queue length, vector"
vector 7 WifiCelNetPassiveQueue.OFFLOAD storeCelTime:vector ETV
attr interpolationmode none
attr title "Time in Cell, vector"
attr unit s
vector 8 WifiCelNetPassiveQueue.OFFLOAD storeDeadline:vector ETV
attr interpolationmode none
attr title "deadline, vector"
attr unit s
vector 9 WifiCelNetPassiveQueue.CELL serviceTime:vector ETV
attr interpolationmode none
attr title "wifi Service, vector"
attr unit s
vector 10 WifiCelNetPassiveQueue.CELL responseTime:vector ETV
attr interpolationmode none
attr title "Response Time, vector"
attr unit s
vector 11 WifiCelNetPassiveQueue.LOCAL serviceTime:vector ETV
attr interpolationmode none
attr title "wifi Service, vector"
attr unit s
vector 12 WifiCelNetPassiveQueue.LOCAL responseTime:vector ETV
attr interpolationmode none
attr title "Response Time, vector"
attr unit s
vector 13 WifiCelNetPassiveQueue.REMOTE queueLength:vector ETV
attr interpolationmode sample-hold
attr title "queue length, vector"
vector 14 WifiCelNetPassiveQueue.LOCAL queueLength:vector ETV
attr interpolationmode sample-hold
attr title "queue length, vector"
0	175316	3000000.986104075335	48.518689008464
0	175327	3000385.773550686109	24.25934760184
0	175334	3000439.994293057832	4.739468585702
0	175343	3000596.633497106877	20.91531723741
0	175348	3000662.056090854074	65.422593747197
0	175394	3002100.81173573708	92.357304676221
0	175403	3002129.831750439408	29.020014702328
0	175410	3002133.35542831502	3.523677875612
0	175417	3002188.077151827244	54.721723512224
0	175422	3002190.110419887119	2.033268059875
0	175427	3002210.779187266114	20.668767378995
0	175432	3002247.395218945663	36.616031679549
0	175437	3002302.024136984608	54.628918038945
0	175444	3002329.965639447973	5.028016591779
0	175451	3002833.677518738275	26.079143956199
0	175458	3003258.408588877055	4.994655173862
0	175465	3003620.270194860901	37.560752215343
0	175474	3003635.11260354571	10.69968134169
0	175483	3003662.41205676124	27.29945321553
0	175488	3003739.542525847376	77.130469086136
0	175493	3003753.137307744521	13.594781897145
0	175500	3003965.713309377789	30.421212376085
0	175507	3004232.577589311733	7.632070260581
0	175514	3004498.612949609756	8.741497183436
0	175521	3004766.088775455138	67.482911708378
0	175528	3004834.862145127658	9.876232675989
0	175535	3004966.134146769531	61.764856926603
0	175542	3005203.756352855053	85.575685634536
0	175551	3005508.140846333309	36.827507989906
0	175556	3005541.899891252439	33.75904491913
0	175563	3005590.286852903625	8.007475884823
0	175570	3005628.874772817308	3.264932182572
0	175577	3005832.182650153313	14.003888512889
0	175586	3006263.972789649856	25.241472024877
0	175595	3006292.055562648426	28.08277299857
0	175600	3006304.660640504082	12.605077855656
0	175605	3006312.501995058378	7.841354554296
0	175612	3006370.367529203376	38.1192925175
0	175688	3008861.828560662099	50.39415513342
0	175693	3008946.767890213609	84.93932955151
0	175702	3008972.249786288985	25.481896075376
0	175707	3008999.844263847582	27.594477558597
0	175712	3009071.279038122393	71.434774274811
0	175717	3009084.051367534009	12.772329411616
0	175722	3009085.292067712856	1.240700178847
0	175729	3009103.697834378052	18.405766665196
0	175734	3009122.35462190424	18.656787526188
0	175739	3009160.846424821356	38.491802917116
0	175748	3009250.076054399549	20.284768147509
0	175753	3009276.949665668507	26.873611268958
0	175760	3009287.700828670855	2.444910215593
0	175767	3009335.990534896095	5.227753866608
0	175774	3009612.958904385132	11.399414798369
0	175781	3009748.080222338046	7.501085119253
0	175788	3009865.236859775686	7.950547856907
0	175797	3010012.731591792383	77.27119109964
0	175802	3010016.897024741955	4.165432949572
0	175813	3010142.740446255884	102.59694855293
0	175818	3010175.428966509335	32.688520253451
0	175823	3010189.744335372988	14.315368863653
0	175830	3010293.207258725337	35.432593232877
0	175837	3010330.72243164113	23.595383906177
0	175844	3010358.973817273482	11.369532725907
0	175851	3010503.194985339449	35.983133863566
0	175858	3010699.090587717512	12.617325939043
0	175867	3010955.305917216273	65.637323437266
0	175872	3010969.301555682626	13.995638466353
0	175881	3011035.498891453161	20.737647473039
0	175886	3011064.698109854082	29.199218400921
0	175895	3011200.188123547756	42.244114118267
0	175900	3011275.294779674097	75.106656126341
0	175907	3011454.053817811556	0.559911668025
0	175914	3011493.888181944601	1.661043401713
0	175921	3011596.900442793435	42.297207005346
0	175928	3011701.882091605796	20.961304672509
0	175935	3011785.507125278719	6.626799582272
0	175942	3011839.332309587592	7.102163110787
0	175949	3012052.531438113649	5.663368238855
0	175956	3012106.01794335553	10.211639178231
0	175963	3012234.36394540927	39.464175148619
0	175972	3012336.338734820733	45.810690601776
0	175977	3012456.35544182221	120.01670700148
0	175984	3012569.419261567264	107.77528623919
0	175993	3012769.515531451033	22.335495148924
0	175998	3012863.498731550296	93.983200099263
0	176009	3013020.60901536853	81.429969410499
0	176016	3013080.264424016334	59.655408647804
0	176021	3013111.483821791352	31.219397775018
0	176026	3013122.759160500621	11.275338709269
0	176033	3013232.318589914006	46.207489897387
0	176040	3013273.087899154305	0.170333394761
0	176049	3013529.915486804675	145.53780709026
0	176052	3013529.959325149701	0.043838345026
0	176061	3013614.113528094962	75.668265780319
0	176070	3013874.2426827992	22.62838206333
0	176075	3013878.275151095555	4.032468296355
0	176088	3013994.154151627172	94.675020629657
0	176093	3014010.980594307508	16.826442680336
0	176098	3014022.582635235719	11.602040928211
0	176103	3014024.87244781479	2.289812579071
0	176112	3014133.764395633679	36.157062388733
0	176123	3014241.532243325107	107.76784769143
0	176128	3014288.110341850751	46.578098525644
0	176135	3014295.342275828426	7.231933977675
0	176140	3014306.34484943047	11.002573602044
0	176145	3014313.130784538463	6.785935107993
0	176152	3014464.10266933819	31.055098707653
0	176159	3014565.43027712922	3.421416714069
0	176170	3014673.25313593387	43.40902142206
0	176175	3014695.906444495106	22.653308561236
0	176180	3014699.106096209068	3.199651713962
0	176187	3014760.637441904238	10.950256511212
0	176194	3014914.397280785882	20.975123516795
0	176201	3014940.272135259911	20.038097515867
0	176210	3015122.115907460539	23.379646406022
0	176215	3015206.223777418141	84.107869957602
0	176222	3015316.712483908258	1.398941187076
0	176231	3015480.544702031274	33.512397244419
0	176238	3015532.87314406395	52.328442032676
0	176243	3015540.231900725509	7.358756661559
0	176250	3015589.475499384254	15.463473980232
0	176257	3015736.457482252461	25.721314426599
0	176264	3016262.278271999891	60.197239364896
0	176271	3016698.728110700908	9.11904186458
0	176278	3016718.3574482559	11.89082484222
0	176383	3019411.098457540895	236.57540698295
0	176388	3019486.657330982123	75.558873441228
0	176395	3019526.638217223509	39.980886241386
0	176402	3019558.258928803946	31.620711580437
0	176407	3019570.03902595164	11.780097147694
0	176412	3019826.162788499384	256.12376254774
0	176417	3019854.078679776587	27.915891277203
0	176422	3019888.809006987022	34.730327210435
0	176427	3019918.056581810993	29.247574823971
0	176432	3019927.005185712839	8.948603901846
0	176437	3019998.508248935675	71.503063222836
0	176446	3020057.155425348801	58.647176413126
0	176451	3020084.372658056856	27.217232708055
0	176458	3020138.9656393606	54.592981303744
0	176463	3020187.069002607304	48.103363246704
0	176468	3020207.231341869658	20.162339262354
0	176475	3020275.048052471927	14.637984573194
0	176484	3020325.108090968615	33.748743524852
0	176489	3020487.573650324554	162.46555935594
0	176496	3020597.330242542385	59.075754288715
0	176507	3020739.978281831141	130.96268768155
0	176514	3020752.860718513683	12.882436682542
0	176519	3020761.243108528982	8.382390015299
0	176526	3020777.181169828992	15.93806130001
0	176531	3020789.339272349124	12.158102520132
0	176538	3020984.577921014128	143.26095501456
0	176549	3021092.93875786242	81.21838901734
0	176554	3021149.170576831038	56.231818968618
0	176561	3021163.862928508484	14.692351677446
0	176566	3021203.124457567405	39.261529058921
0	176573	3021390.73933924957	2.705135630841
0	176580	3021395.782202645181	2.580309005343
0	176589	3021499.052220567664	32.429402857293
0	176594	3021508.6358090194	9.583588451736
0	176601	3021658.228219776666	37.797044679384
0	176608	3021920.604245365166	36.230813589086
0	176615	3022039.18205500515	61.279380802843
0	176626	3022475.930660229692	157.42264199577
0	176633	3022516.210783265362	40.28012303567
0	176640	3022577.455884002342	61.24510073698
0	176645	3022582.912989110556	5.457105108214
0	176650	3022640.884644333979	57.971655223423
0	176657	3022970.010307653421	29.177818439577
0	176664	3023327.467058722486	56.900825863456
0	176671	3023393.955401131089	1.369750336692
0	176678	3023524.596322879366	106.39069158925
0	176685	3023867.79880307746	19.702468719831
0	176694	3024127.541343263996	255.97113368031
0	176699	3024185.310097038342	57.768753774346
0	176708	3024362.70393470581	22.551345098119
0	176715	3024397.625420918645	34.921486212835
0	176720	3024455.092676253834	57.467255335189
0	176727	3024714.127344185034	97.374698637833
0	176734	3024761.070209783964	46.256555993769
0	176743	3024785.9191465925	4.73786397867
0	176748	3024875.452684184709	89.533537592209
0	176755	3025059.799267778903	35.33079081728
0	176762	3025171.638540614219	23.165271315583
0	176769	3025338.758077703841	0.31314021758
0	176776	3025348.942297870665	1.071286273504
0	176783	3025446.081151156445	6.070727246149
0	176790	3025538.202955565567	70.334544632464
0	176797	3025792.871494849594	119.67908570645
0	176806	3025986.194249080215	90.106205730709
0	176811	3026001.871900240779	15.677651160564
0	176818	3026112.269779322823	12.012157195053
0	176825	3026257.797368982832	24.119354305883
0	176832	3026360.673325562459	17.137731550307
0	176843	3026462.811679818044	38.520066596756
0	176848	3026470.685882154444	7.8742023364
0	176853	3026485.351494756156	14.665612601712
0	176860	3026592.597904998582	8.790671574149
0	176869	3026668.764189089501	37.042486531757
0	176876	3026783.352754396775	114.58856530727
0	176883	3026864.928552519424	81.575798122649
0	176888	3026870.225165265648	5.296612746224
0	176895	3026930.818735047356	31.64886153473
0	176904	3027104.973612194666	102.44062199057
0	176909	3027144.63012380793	39.656511613264
0	176916	3027247.086697411406	9.836394014311
0	176923	3027278.78427999666	0.185360836188
0	176932	3027474.546669518817	7.446220410739
0	176937	3027550.858144250275	76.311474731458
0	176944	3027652.963506503629	75.826746844362
0	176955	3027872.427009936316	214.1305551194
0	176960	3027883.169191641463	10.742181705147
0	176965	3027892.541577658462	9.372386016999
0	176972	3027998.116736245862	5.518613447567
0	176979	3028213.157184608607	12.151694869659
0	176986	3028232.903532672143	10.372313258303
0	176993	3028358.772097497261	23.389209008286
0	177000	3028455.421548819527	0.015156728165
0	177007	3028522.190932729991	18.83655727269
0	177014	3028863.988246998754	22.911025124336
0	177023	3028994.23026630849	12.809356416014
0	177030	3029077.20924681866	82.97898051017
0	177035	3029117.661662187099	40.452415368439
0	177042	3029288.444504064882	6.198286451915
0	177049	3029340.656274844055	2.478707707635
0	177056	3029391.956123015624	23.875002879085
0	177063	3029754.222310964455	0.99431240098
0	177070	3030013.061405781877	23.89325984311
0	177079	3030163.411334998553	25.549740412971
0	177084	3030247.993484559919	84.582149561366
0	177093	3030358.34035566724	54.989283220169
0	177098	3030423.807554535283	65.467198868043
0	177107	3030514.260572240498	86.515264606848
0	177112	3030521.873171873707	7.612599633209
0	177121	3030626.685446988981	57.779867423382
0	177126	3030670.66878354956	43.983336560579
0	177133	3030804.912757366726	15.51500471003
0	177140	3030840.689659488372	24.622469317425
0	177147	3031018.468569630494	23.826202033848
0	177156	3031160.651188208258	21.156617639181
0	177161	3031222.323245245179	61.672057036921
0	177170	3031861.56723746041	46.940518242418
0	177175	3031899.584619306544	38.017381846134
0	177182	3031953.266707934148	4.642645775696
0	177189	3032319.848790977134	54.008250335792
0	177196	3032442.205631393463	1.124147958444
0	177203	3032762.706210724853	23.077647539081
0	177210	3032837.794640018733	5.098418674241
0	177217	3032904.941866839529	5.550891303673
0	177224	3033230.261705666305	43.520848026348
0	177233	3033275.295878946277	25.272401500593
0	177238	3033366.493629717671	91.197750771394
0	177245	3033417.391202769951	10.372289057469
0	177252	3033703.865716211821	48.822258165025
0	177261	3033864.738644187742	53.678384443764
0	177268	3033921.728692547384	56.990048359642
0	177273	3033929.020935170329	7.292242622945
0	177280	3034046.207663430006	81.195773753461
0	177287	3034358.038339227448	6.118061169198
0	177294	3034474.917886207461	64.611429109089
0	177424	3037735.598671428312	32.092350828035
0	177432	3037821.748436670158	86.149765241846
0	177437	3037894.482717251621	72.734280581463
0	177446	3037956.827449240122	62.344731988501
0	177454	3038101.801854637591	144.97440539747
0	177459	3038206.915818736573	105.11396409898
0	177464	3038214.451102668153	7.53528393158
0	177471	3038217.958750269309	3.507647601156
0	177476	3038241.997020437904	24.038270168595
0	177481	3038266.150580549711	24.153560111807
0	177486	3038286.850288771071	20.69970822136
0	177491	3038301.733316519916	14.883027748845
0	177496	3038307.676884324572	5.943567804656
0	177501	3038338.023535638271	30.346651313699
0	177506	3038354.36192750349	16.338391865219
0	177511	3038358.747238764837	4.385311261347
0	177524	3038737.338183953377	216.95681335558
0	177529	3038753.652789814398	16.314605861021
0	177534	3038760.851280989996	7.198491175598
0	177539	3038869.507712501437	108.65643151144
0	177546	3039136.28162167545	7.193370410472
0	177553	3039519.304145152087	17.940034867354
0	177562	3039664.347698846738	38.310378371494
0	177567	3039707.91025306175	43.562554215012
0	177574	3039803.412826867853	32.198257911687
0	177581	3039966.927321403672	118.30521553277
0	177590	3040362.974612508972	156.77262748078
0	177595	3040366.565496910241	3.590884401269
0	177602	3040441.545090178575	52.884364081386
0	177609	3040575.934487976244	25.702589345129
0	177616	3040689.433541077203	75.782095738425
0	177623	3040724.425653815346	0.671191763831
0	177630	3040752.756333464136	15.408522861358
0	177639	3040830.740620034729	72.277781516332
0	177644	3040841.596972575996	10.856352541267
0	177653	3040906.5802121624	28.621661988419
0	177660	3041026.501522545913	119.92131038351
0	177669	3041067.173477268391	40.671954722478
0	177678	3041118.628957466663	51.455480198272
0	177683	3041148.982729173361	30.353771706698
0	177688	3041192.136178435905	43.153449262544
0	177695	3041204.902674961933	12.766496526028
0	177702	3041243.503436907908	38.600761945975
0	177707	3041251.205057484121	7.701620576213
0	177716	3041396.357487043305	4.217500218831
0	177721	3041411.019523924068	14.662036880763
0	177728	3041418.146951456189	6.769586173422
0	177735	3041469.261496891703	14.047393765605
0	177742	3041493.357865995316	3.531771999197
0	177749	3041550.903990345907	30.509648855611
0	177756	3041655.335800452882	4.379231283895
0	177763	3041754.725968184617	54.190800193565
0	177772	3041879.517488730203	104.22902337537
0	177779	3041905.69730851009	26.179819779887
0	177784	3041919.507211723556	13.809903213466
0	177793	3042280.152704881392	11.797730460704
0	177798	3042321.265300562516	41.112595681124
0	177809	3042525.519740153712	69.288274435306
0	177816	3042549.073528409019	23.553788255307
0	177821	3042569.318420415395	20.244892006376
0	177826	3042573.800334725413	4.481914310018
0	177833	3042603.933410590832	16.006759767038
0	177840	3042671.194479742752	5.407817897195
0	178045	3048237.344729776238	17.035016054011
0	178052	3048276.925960434431	39.581230658193
0	178057	3048295.125036875341	18.19907644091
0	178062	3048314.508822132725	19.383785257384
0	178067	3048318.638769381842	4.129947249117
0	178072	3048325.592368342428	6.953598960586
0	178077	3048327.356300960797	1.763932618369
0	178084	3048363.72629311652	36.369992155723
0	178093	3048394.33727036357	30.61097724705
0	178104	3048514.417880494757	120.08061013119
0	178113	3048539.456110813295	25.038230318538
0	178118	3048574.68577149932	35.229660686025
0	178123	3048586.132840278007	11.447068778687
0	178128	3048619.882089300437	33.74924902243
0	178133	3048625.482292142191	5.600202841754
0	178140	3048709.050947387177	83.568655244986
0	178147	3048785.490375882246	76.439428495069
0	178152	3048884.724441644566	99.23406576232
0	178157	3048973.969956353022	89.245514708456
0	178164	3049051.33744448939	77.367488136368
0	178171	3049173.433228973039	122.09578448365
0	178176	3049239.249992832227	65.816763859188
0	178183	3049283.703423864878	44.453431032651
0	178188	3049308.82014558305	25.116721718172
0	178193	3049310.908275767729	2.088130184679
0	178200	3049464.529431805689	6.439096234346
0	178207	3049602.36653431668	4.65667860947
0	178214	3049791.117947879079	98.672917726817
0	178221	3049853.217915296223	15.854185393236
0	178228	3049868.459421914617	8.221618309125
0	178235	3050005.322612293829	4.484890043518
0	178248	3050377.193403324864	270.71144466464
0	178253	3050478.360751564968	101.1673482401
0	178258	3050484.485909970768	6.1251584058
0	178263	3050509.940448233784	25.454538263016
0	178270	3050592.444067595846	41.903471600792
0	178279	3050721.373093957925	121.54911742443
0	178284	3050751.450077254774	30.076983296849
0	178291	3050802.261919624956	0.792618200419
0	178298	3050840.988601606379	1.780398108226
0	178305	3050928.999324383125	33.303996949231
0	178312	3051036.894979138054	32.863690545927
0	178319	3051059.546808423586	16.860979643787
0	178326	3051118.845140826999	40.999063691314
0	178333	3051135.635206811213	0.709594841509
0	178340	3051421.749253708415	22.19359744357
0	178347	3051630.84833006351	120.95694265537
0	178354	3051742.431205577964	1.94045780148
0	178361	3051800.502042756953	50.423430882106
0	178368	3051886.541174454512	69.38071579999
0	178380	3052297.539640984141	45.784128737779
0	178387	3052379.110221501192	73.020805197805
0	178394	3052392.768050876118	9.155420199892
0	178411	3052743.286891978314	219.13564327973
0	178416	3052745.982230252493	2.695338274179
0	178421	3052775.647050654329	29.664820401836
0	178426	3052796.724710904198	21.077660249869
0	178433	3052865.552195363191	6.519766556057
0	178440	3052946.837504776995	0.969388689902
0	178447	3053059.145539337433	27.67286582578
0	178454	3053143.891531547244	16.55290695251
0	178461	3053237.22892360173	24.507492293575
0	178468	3053473.556072074307	24.685578189974
0	178477	3053634.638080102909	79.048944041875
0	178482	3053641.768787302518	7.130707199609
0	178489	3053893.178722997264	109.94729825783
0	178496	3053996.928986097925	44.930838653722
0	178503	3054355.294433881169	1.098268632958
0	178510	3054700.616765723376	37.556470699619
0	178517	3054783.944454655479	75.747055336494
0	178524	3054864.208110914688	54.894128052366
0	178531	3055147.901078954198	87.059854542405
0	178538	3055207.198901972351	51.724416352471
0	178545	3055279.269485491075	24.118225163847
0	178552	3055534.034883436369	119.06753402347
0	178559	3055699.698247144453	38.832288401573
0	178566	3055765.638098025073	19.307847161884
0	178573	3055882.424159941784	42.111649844612
0	178580	3056218.913065215359	4.327767353967
0	178587	3056436.54714735656	62.928160647727
0	178596	3056470.599053335663	14.307806893672
0	178601	3056560.440476349681	89.841423014018
0	178610	3056586.25123282405	12.750453993327
0	178619	3056669.852123011306	83.600890187256
0	178628	3056714.097142822879	44.245019811573
0	178633	3056769.990307948669	55.89316512579
0	178640	3056806.480037564705	36.489729616036
0	178645	3056811.17097803938	4.690940474675
0	178652	3056932.290712395088	121.11973435571
0	178657	3056994.663126763692	62.372414368604
0	178664	3057132.091924616729	15.804024632513
0	178671	3057168.165577920366	25.028591565852
0	178684	3057344.554747572469	175.74922109519
0	178691	3057388.643425128276	44.088677555807
0	178696	3057392.664641619918	4.021216491642
0	178701	3057397.760786440931	5.096144821013
0	178706	3057441.910168213929	44.149381772998
0	178713	3057619.740898829783	48.578984795366
0	178720	3057904.136802449975	52.656349807205
0	178729	3058139.244677637484	14.954557943313
0	178734	3058171.220267665752	31.975590028268
0	178741	3058382.33450395143	0.971948834888
0	178748	3058448.899046668269	26.082234929569
0	178755	3058631.168143900961	51.727561306304
0	178762	3058692.193077899157	27.573118766199
0	178769	3058890.615677254265	43.003865766191
0	178776	3059021.472693230422	5.826762146435
0	178783	3059066.629919252711	2.733371719741
0	178792	3059612.164789163922	163.19044637529
0	178797	3059618.454880494523	6.290091330601
0	178804	3059727.652428225855	14.810775001973
0	178811	3059936.581256551699	24.737274914502
0	178818	3060077.382956383694	26.622141446522
0	178825	3060233.006089219536	7.242526444432
0	178832	3060291.847857674126	19.628753175671
0	178839	3060502.909733711556	53.254980799533
0	178846	3060600.631806590552	33.184101624698
0	178855	3060838.726711157043	9.677459141277
0	178862	3060892.606828281982	53.880117124939
0	178865	3060896.447547599435	3.840719317453
0	178878	3061148.148884928267	200.01469969365
0	178883	3061183.692651651848	35.543766723581
0	178888	3061185.697700569825	2.005048917977
0	178895	3061383.701148744839	4.728955929083
0	178902	3061665.091743467236	88.260100792287
0	178911	3061737.062153391894	35.392675379182
0	178922	3061905.529788704896	168.467635313
0	178931	3061980.694206353876	75.16441764898
0	178938	3062092.64621202018	111.9520056663
0	178945	3062121.4960870938	28.84987507362
0	178950	3062149.19399341003	27.69790631623
0	178955	3062151.737093590461	2.543100180431
0	178960	3062169.566424355877	17.829330765416
0	178965	3062201.883398604845	32.316974248968
0	178972	3062275.448665072705	34.693826019664
0	178979	3062336.4078712674	18.00539179396
0	178986	3062563.79679320231	7.011319737192
0	178995	3062692.264609633932	12.741972627705
0	179002	3062709.412168112035	17.147558478103
0	179007	3062729.705671181087	20.293503069052
0	179014	3062799.792225645248	3.554147084534
0	179021	3062877.576301428574	44.656159490878
0	179028	3063085.775212210614	3.943946870726
0	179035	3063380.930264976889	13.700760343013
0	179042	3063470.428256594982	32.256643886337
0	179049	3063519.446718628812	17.137832655833
0	179056	3063769.022074710305	21.070111530496
0	179063	3064539.988976719828	1.755653515619
0	179070	3064679.20737110122	56.849609476679
0	179077	3064702.269156263	0.2298351455
0	179086	3064744.485559274586	24.797522113887
0	179097	3064862.510295744502	118.02473646992
0	179102	3064869.942862445274	7.432566700772
0	179107	3064875.943370588105	6.000508142831
0	179112	3064890.634183707445	14.69081311934
0	179119	3065348.541143414963	81.648212179237
0	179128	3065574.207720903504	72.308260725971
0	179133	3065615.62161628967	41.413895386166
0	179140	3065729.895254570743	45.890935583602
0	179147	3066029.674130064871	29.115536102079
0	179154	3066131.495019349796	41.904092233787
0	179161	3066213.603633243271	48.140419413566
0	179170	3066315.263355481823	49.298222160554
0	179175	3066367.345968199701	52.082612717878
0	179182	3066474.758865807501	42.307730607033
0	179191	3066554.340702006375	34.005331512306
0	179196	3066662.253760425458	107.91305841908
0	179203	3067071.675946436036	15.70919920766
0	179210	3067152.433911480678	18.671541394648
0	179217	3067258.043825708405	61.37382374046
0	179224	3067321.1143339337	22.582785952127
0	179231	3067416.455490977422	86.192774558534
0	179240	3067579.629170484066	24.687228409836
0	179245	3067591.225040025696	11.59586954163
0	179252	3067830.542669924072	90.985053425471
0	179259	3068220.915859153698	82.495062100057
0	179266	3068333.106931717461	28.905412342982
0	179273	3068593.947310629076	0.857848777593
0	179284	3068900.215814190138	244.89976729139
0	179289	3068942.963145031263	42.747330841125
0	179296	3069028.034081610723	85.07093657946
0	179301	3069098.081602986764	70.047521376041
0	179308	3069273.472755722691	87.1085552215
0	179315	3069442.877901139166	1.967788067309
0	179322	3069522.733553316991	27.06869727116
0	179329	3069670.710921419072	32.306413321958
0	179336	3069719.637745736255	20.736109786854
0	179343	3069774.016215670487	54.026976873032
0	179350	3069914.373742269985	80.365035866126
0	179357	3069979.684094483959	26.330690658798
0	179364	3070093.046976670572	13.689100814619
0	179371	3070510.660618078062	60.641372618424
0	179380	3070536.285871276645	15.084523088607
0	179385	3070552.880210106923	16.594338830278
0	179392	3070647.860657632509	7.935214272881
0	179399	3070684.175408851949	14.929620634083
0	179410	3070981.350092896044	267.4066938052
0	179415	3070984.91806231509	3.567969419046
0	179420	3070989.690506879613	4.772444564523
0	179431	3071253.355677673724	100.15494004065
0	179440	3071338.016547284668	84.660869610944
0	179445	3071342.879803038323	4.863255753655
0	179452	3071490.394163317799	147.51436027948
0	179457	3071499.752126466024	9.357963148225
0	179462	3071513.256053895934	13.50392742991
0	179469	3071696.34457955442	11.573295030903
0	179476	3071720.459395675432	1.108805510385
0	179483	3071786.929461115396	15.991370839198
0	179491	3072158.584080177988	52.588722112728
0	179541	3073341.276635918595	5.887308270946
0	179546	3073353.524322178011	12.247686259416
0	179551	3073380.399788959229	26.875466781218
0	179556	3073398.566947084444	18.167158125215
0	179561	3073414.860192699386	16.293245614942
0	179566	3073442.001866877446	27.14167417806
0	179571	3073451.059025044056	9.05715816661
0	179578	3073596.743372124661	4.372444588506
0	179589	3073947.354392124538	150.12270324814
0	179598	3074134.434449616001	68.743213974529
0	179603	3074169.16553399574	34.731084379739
0	179612	3074293.434411386496	36.73601265398
0	179617	3074360.455456392175	67.021045005679
0	179624	3074536.914311828556	26.348932902944
0	179631	3074642.956678981458	65.080405770942
0	179638	3074741.124067069393	30.953056607066
0	179645	3074979.699121664405	8.212313019168
0	179652	3075134.063908142552	17.149072572152
0	179659	3075171.276669117275	23.030428942465
0	179666	3075212.862136443729	24.709999814027
0	179673	3075231.826094508592	9.784628904769
0	179682	3075285.686221695519	22.935264233192
0	179685	3075285.931791471969	0.24556977645
0	179759	3077935.992175798946	95.332324291342
0	179764	3077959.891088038782	23.898912239836
0	179769	3077972.321681925009	12.430593886227
0	179774	3077998.482584301136	26.160902376127
0	179779	3078031.14501826216	32.662433961024
0	179784	3078046.45988841519	15.31487015303
0	179789	3078155.028790329655	108.56890191447
0	179800	3078275.660509476109	33.347798325583
0	179807	3078347.309079249663	55.37753594511
0	179814	3078394.189499596001	30.109810148375
0	179821	3078630.60015489807	17.394491232318
0	179828	3078734.198873254814	33.835649883877
0	179835	3078747.029154459823	3.220835034026
0	179863	3079351.284209962923	45.284399529055
0	179870	3079392.120667239434	40.836457276511
0	179875	3079414.784655839603	22.663988600169
0	179884	3079558.087437337396	60.932313056672
0	179891	3079587.869149042712	29.781711705316
0	179896	3079611.43104547237	23.561896429658
0	179903	3079618.220146148434	6.535716021201
0	179912	3079713.029145817425	60.709708465341
0	179917	3079719.920521417577	6.891375600152
0	179928	3079917.30751172551	15.157951415667
0	179935	3080031.915924837632	4.505561924997
0	179944	3080193.39984273899	50.763447879989
0	179949	3080211.618900829021	18.219058090031
0	179956	3080475.410085421466	5.080511035126
0	179963	3080669.246833337847	124.46880421708
0	179972	3081052.244222251314	114.28428641509
0	179977	3081090.371569230345	38.127346979031
0	179984	3081240.993278357779	15.635209051448
0	179991	3081444.60453729321	66.929804992361
0	179998	3081542.914116210372	40.565996050028
0	180007	3081723.677503776863	154.23996974168
0	180012	3081739.026897401407	15.349393624544
0	180021	3082043.575035614409	57.659771308772
0	180026	3082102.967003267932	59.391967653523
0	180033	3082230.24214792335	5.543861642824
0	180040	3082254.609799549821	24.113775387217
0	180049	3082403.743072164541	101.5049399619
0	180054	3082412.475145655822	8.732073491281