version 2
run Simulations-62-20191218-11:09:24-65753
attr configname Simulations
attr datetime 20191218-11:09:24
attr experiment Simulations
attr inifile omnetpp.ini
attr iterationvars "$seed=65, $0=6000"
attr iterationvarsf seed=65,6000-
attr measurement "$seed=65, $0=6000"
attr network WifiCelNetPassiveQueue
attr processid 65753
attr repetition 0
attr replication #0
attr resultdir results/Simulations/omnet
attr runnumber 62
attr seedset 65
itervar seed 65
param **.numJobs 10000
param *.OFFLOAD.deadline exponential(6000s)
param *.source.interArrivalTime exponential(120s)
param *.WIFI.serviceTime exponential(40s)
param *.CELL.serviceTime exponential(400s)
param *.OFFLOAD.switchToWi exponential(1524s)
param *.OFFLOAD.switchToCel exponential(3120s)
param *.LOCAL.serviceTime exponential(5s)
param *.REMOTE.serviceTime exponential(1s)

vector 0 WifiCelNetPassiveQueue.OFFLOAD queueLength:vector ETV
attr interpolationmode sample-hold
attr title "queue length, vector"
vector 1 WifiCelNetPassiveQueue.OFFLOAD storeDeadline:vector ETV
attr interpolationmode none
attr title "deadline, vector"
attr unit s
vector 2 WifiCelNetPassiveQueue.LOCAL serviceTime:vector ETV
attr interpolationmode none
attr title "wifi Service, vector"
attr unit s
vector 3 WifiCelNetPassiveQueue.LOCAL responseTime:vector ETV
attr interpolationmode none
attr title "Response Time, vector"
attr unit s
vector 4 WifiCelNetPassiveQueue.sink lifeTime:vector ETV
attr interpolationmode none
attr title "lifetime of arrived jobs, vector"
attr unit s
vector 5 WifiCelNetPassiveQueue.CELL serviceTime:vector ETV
attr interpolationmode none
attr title "wifi Service, vector"
attr unit s
vector 6 WifiCelNetPassiveQueue.CELL responseTime:vector ETV
attr interpolationmode none
attr title "Response Time, vector"
attr unit s
vector 7 WifiCelNetPassiveQueue.REMOTE serviceTime:vector ETV
attr interpolationmode none
attr title "wifi Service, vector"
attr unit s
vector 8 WifiCelNetPassiveQueue.REMOTE responseTime:vector ETV
attr interpolationmode none
attr title "Response Time, vector"
attr unit s
vector 9 WifiCelNetPassiveQueue.OFFLOAD storeWifiTime:vector ETV
attr interpolationmode none
attr title "Time in Wifi, vector"
attr unit s
vector 10 WifiCelNetPassiveQueue.WIFI serviceTime:vector ETV
attr interpolationmode none
attr title "wifi Service, vector"
attr unit s
vector 11 WifiCelNetPassiveQueue.WIFI responseTime:vector ETV
attr interpolationmode none
attr title "Response Time, vector"
attr unit s
vector 12 WifiCelNetPassiveQueue.REMOTE queueLength:vector ETV
attr interpolationmode sample-hold
attr title "queue length, vector"
vector 13 WifiCelNetPassiveQueue.OFFLOAD storeCelTime:vector ETV
attr interpolationmode none
attr title "Time in Cell, vector"
attr unit s
vector 14 WifiCelNetPassiveQueue.LOCAL queueLength:vector ETV
attr interpolationmode sample-hold
attr title "queue length, vector"
0	174373	3000057.896193399979	14
0	174374	3000110.823656455438	13
0	174379	3000253.841345452563	14
0	174380	3000272.332423800604	13
0	174386	3000371.551433571411	14
0	174388	3000399.254373637448	15
0	174390	3000509.015257478304	16
0	174391	3000553.4133124539	15
0	174393	3000568.419212946867	14
0	174396	3000570.792109243185	13
0	174403	3000577.969610605486	12
0	174408	3000637.668901581534	11
0	174413	3000639.693240564033	10
0	174418	3000683.436382058467	9
0	174423	3000698.186672751094	8
0	174429	3000707.789045556797	9
0	174430	3000707.976542038335	8
0	174433	3000708.565330488468	7
0	174440	3000739.029746804068	6
0	174446	3000762.38239547993	7
0	174447	3000787.510977081783	6
0	174452	3000791.442601047092	5
0	174457	3000820.479928858063	4
0	174462	3000825.672501302806	3
0	174467	3000845.219354995695	2
0	174472	3000882.438126513398	1
0	174478	3000900.085352499094	2
0	174479	3000911.505399908766	1
0	174485	3000927.845996836395	2
0	174487	3000961.206457376029	3
0	174488	3000971.389442144547	2
0	174497	3001029.263027936255	1
0	174502	3001041.097198475228	0
0	174522	3001273.122190264034	1
0	174524	3001286.428902028964	2
0	174526	3001366.93675584381	3
0	174527	3001421.474672876336	2
0	174533	3001432.069151540858	3
0	174535	3001529.815601585194	4
0	174537	3001558.911883689013	5
0	174538	3001566.63052711467	4
0	174543	3001622.62618820285	3
0	174548	3001691.713433885268	2
0	174554	3001700.806504051696	3
0	174556	3001701.421424277725	4
0	174557	3001739.055672328042	3
0	174562	3001762.944228954534	2
0	174568	3001771.917048869066	3
0	174569	3001778.983045239432	2
0	174575	3001815.302626884094	3
0	174576	3001828.658335781857	2
0	174581	3001933.791159203048	1
0	174586	3001936.226643329724	0
0	174655	3003275.46121226187	1
0	174656	3003285.794174903259	0
0	174690	3003618.274559475358	1
0	174692	3003664.300451806665	2
0	174693	3003673.425389909433	1
0	174698	3003676.951695250392	0
0	174762	3005001.875480012308	1
0	174763	3005007.897758173389	0
0	174783	3005276.592811795043	1
0	174784	3005306.154202898954	0
0	174790	3005313.7504943976	1
0	174792	3005387.297737776225	2
0	174793	3005406.55500621371	1
0	174798	3005419.40570389871	0
0	174839	3006270.145336905334	1
0	174840	3006319.661910046982	0
0	174853	3006428.940240427875	1
0	174854	3006440.79299044009	0
0	174874	3006698.432140095692	1
0	174876	3006717.875598882105	2
0	174877	3006804.473945144544	1
0	174882	3006807.821419063897	0
0	174909	3007212.754568111135	1
0	174910	3007214.081761998649	0
0	174930	3007358.857057300809	1
0	174931	3007414.965767861743	0
0	174984	3008609.646335542091	1
0	174985	3008652.607989739888	0
0	175023	3009298.865274549123	1
0	175024	3009318.428509344137	0
0	175058	3010166.068312276276	1
0	175059	3010193.514676194375	0
0	175093	3010995.137651686144	1
0	175095	3011008.113298558223	2
0	175097	3011095.091773509419	3
0	175098	3011115.887525831156	2
0	175103	3011143.62925055351	1
0	175108	3011144.972367367594	0
0	175121	3011424.510622569055	1
0	175122	3011438.188153675082	0
0	175149	3012023.825918176716	1
0	175150	3012066.651519095492	0
0	175163	3012386.163511166361	1
0	175164	3012434.521684416273	0
0	175177	3012647.103847555958	1
0	175178	3012678.219591503262	0
0	175184	3012717.24389275822	1
0	175185	3012723.843789384133	0
0	175212	3013161.624869176934	1
0	175213	3013203.833427877083	0
0	175226	3013353.494434946772	1
0	175227	3013410.644948577107	0
0	175261	3013969.601995239688	1
0	175262	3013980.693411968573	0
0	175268	3014001.517921113954	1
0	175269	3014012.613366537373	0
0	175275	3014039.206836400578	1
0	175276	3014062.861209650584	0
0	175359	3015640.633886833792	1
0	175360	3015646.751680709461	0
0	175373	3015778.723898560799	1
0	175374	3015781.023975174621	0
0	175395	3016233.883789876799	1
0	175397	3016429.504785260631	2
0	175399	3016632.318115075882	3
0	175401	3016691.461325322055	4
0	175403	3016709.667099514974	5
0	175404	3016719.839896806271	4
0	175410	3016748.980377330921	5
0	175412	3016773.807870062779	6
0	175413	3016813.635884409584	5
0	175419	3016899.449873820044	6
0	175421	3016973.673377415903	7
0	175423	3017298.246051416256	8
0	175424	3017327.201488684987	7
0	175429	3017354.814386652213	8
0	175431	3017366.757935823271	9
0	175433	3017559.471618045064	10
0	175435	3017769.837268742072	11
0	175436	3017862.909831283694	10
0	175440	3017871.300990625574	9
0	175442	3017877.326433694317	8
0	175448	3017910.948661444504	9
0	175449	3017952.335635647094	8
0	175454	3017966.083203454452	7
0	175459	3018037.056990189458	6
0	175464	3018148.331814266391	5
0	175470	3018150.116334715253	6
0	175471	3018221.901754016616	5
0	175476	3018238.89060366062	4
0	175481	3018257.567748227549	3
0	175486	3018263.523250555775	2
0	175495	3018296.346333285884	1
0	175501	3018305.477997770838	2
0	175502	3018316.610335615439	1
0	175508	3018328.985224493073	2
0	175510	3018334.059185968496	3
0	175512	3018390.859042744034	4
0	175513	3018407.635157725796	3
0	175518	3018434.810074823872	2
0	175523	3018445.5003030792	1
0	175529	3018470.140485932365	2
0	175531	3018550.653262160718	3
0	175532	3018554.831641343004	2
0	175537	3018557.15991621172	1
0	175542	3018626.397002241298	0
0	175555	3018897.163846401912	1
0	175557	3019007.313616599062	2
0	175559	3019016.909128621019	3
0	175560	3019032.875090137461	2
0	175565	3019047.929543293085	1
0	175570	3019080.640778799444	0
0	175618	3019672.044778229162	1
0	175619	3019703.751581194717	0
0	175688	3021746.989764447232	1
0	175689	3021755.19925044153	0
0	175702	3021911.495095110156	1
0	175703	3021917.992867967401	0
0	175716	3021969.234998601512	1
0	175717	3022084.480495839402	0
0	175765	3023171.668537419685	1
0	175766	3023213.517275764214	0
0	175791	3023625.14387171287	1
0	175792	3023627.355518940054	0
0	175817	3024090.529818899796	1
0	175819	3024107.162522121225	2
0	175821	3024222.362324601505	3
0	175823	3024225.027455461899	4
0	175824	3024233.86782030041	3
0	175829	3024320.287123829532	2
0	175835	3024362.789455559246	3
0	175837	3024485.12879531777	4
0	175838	3024506.379002084303	3
0	175843	3024508.290803866799	2
0	175849	3024538.763927885446	3
0	175850	3024745.492929260879	2
0	175856	3024771.247221790683	3
0	175858	3024777.757842659112	4
0	175859	3024826.427801064015	3
0	175861	3024826.71717426782	2
0	175866	3024884.259319887962	1
0	175871	3024892.504724886289	0
0	175877	3024898.657052588297	1
0	175878	3024971.658832377413	0
0	175898	3025068.925872929349	1
0	175899	3025096.530385458146	0
0	175912	3025143.917435146329	1
0	175913	3025179.732024102273	0
0	175937	3025506.648959320139	1
0	175938	3025508.388649486353	0
0	175944	3025556.690635554965	1
0	175945	3025608.574689909001	0
0	175958	3025890.849430901682	1
0	175959	3025899.77392875615	0
0	175974	3026112.036668839106	1
0	175976	3026176.360935636921	2
0	175978	3026223.122326495386	3
0	175979	3026294.966158829688	2
0	175985	3026295.922458886633	3
0	175986	3026312.729035560616	2
0	175991	3026320.572821394741	1
0	175997	3026323.366849438113	2
0	175999	3026342.119284119099	3
0	176001	3026354.849164901166	4
0	176002	3026367.03473258301	3
0	176007	3026439.437595920562	2
0	176013	3026444.020743076101	3
0	176014	3026456.85047840073	2
0	176019	3026474.359005834546	1
0	176024	3026528.662545841379	0
0	176030	3026570.440455990307	1
0	176032	3026573.845555385015	2
0	176034	3026631.409922548943	3
0	176035	3026669.26892420976	2
0	176039	3026672.166503927029	3
0	176042	3026877.177218058324	2
0	176047	3026909.87322926488	1
0	176052	3026917.740556123423	0
0	176086	3027339.399567719687	1
0	176087	3027362.523117907293	0
0	176093	3027380.668127265056	1
0	176095	3027410.177980511483	2
0	176097	3027433.362484292935	3
0	176099	3027436.050851489125	4
0	176100	3027478.862006597325	3
0	176106	3027492.060765329136	4
0	176108	3027520.119364728957	5
0	176109	3027521.118567576046	4
0	176114	3027576.646207111069	3
0	176119	3027619.307594192307	2
0	176125	3027704.792665747509	3
0	176126	3027746.284878561916	2
0	176131	3027753.183161377979	1
0	176136	3027835.876167531536	0
0	176142	3027850.006398036135	1
0	176143	3027912.026007280016	0
0	176184	3028479.122637551182	1
0	176185	3028495.270896760747	0
0	176189	3028496.289926571739	1
0	176193	3028505.104930226973	2
0	176195	3028513.551366052944	3
0	176196	3028531.269168525909	2
0	176202	3028633.301690016181	3
0	176203	3028746.47919986683	2
0	176208	3028754.517991672278	1
0	176213	3028788.816080869184	0
0	176226	3028822.139962112165	1
0	176227	3028824.504888441612	0
0	176233	3028833.042980144203	1
0	176234	3028842.630391178266	0
0	176254	3029061.925107954819	1
0	176256	3029082.554095928904	2
0	176257	3029083.710819909161	1
0	176262	3029137.657940629204	0
0	176305	3030080.894956493322	1
0	176306	3030145.258919892487	0
0	176319	3030468.710683473372	1
0	176320	3030482.47296909929	0
0	176340	3030985.919527609564	1
0	176341	3031040.403625726254	0
0	176368	3031291.978090253242	1
0	176369	3031296.034471368659	0
0	176389	3031587.892210950831	1
0	176391	3031593.258170624017	2
0	176393	3031600.921122928377	3
0	176394	3031613.993715841908	2
0	176399	3031654.594570820033	1
0	176405	3031706.976866748373	2
0	176407	3031739.654820941825	3
0	176408	3031750.19752626964	2
0	176414	3031767.973490812345	3
0	176415	3031773.976550736878	2
0	176421	3032034.934140547618	3
0	176423	3032072.470425844198	4
0	176424	3032158.78646267556	3
0	176429	3032167.113790737803	2
0	176434	3032205.33837535456	1
0	176439	3032261.936470937664	0
0	176467	3032904.609041333192	1
0	176468	3032969.631084493267	0
0	176474	3032989.636078786143	1
0	176475	3033100.563349967174	0
0	176545	3034395.384414064909	1
0	176547	3034410.179267169058	2
0	176548	3034570.979677205484	1
0	176553	3034632.205695716876	0
0	176573	3034896.708418074046	1
0	176575	3034904.547841057789	2
0	176577	3034904.770926982169	3
0	176578	3035016.94772171121	2
0	176584	3035023.814461673124	3
0	176585	3035051.509176564334	2
0	176590	3035067.536871481084	1
0	176595	3035128.80772656317	0
0	176657	3036035.643697517859	1
0	176658	3036060.502682598569	0
0	176701	3037413.396730087991	1
0	176702	3037472.21231924024	0
0	176715	3037859.317674052855	1
0	176716	3037903.331313182989	0
0	176750	3038353.637667051342	1
0	176751	3038431.696827834807	0
0	176771	3038606.804895352952	1
0	176772	3038617.176680970971	0
0	176778	3038620.495310193005	1
0	176779	3038660.058360736406	0
0	176785	3038687.157946091629	1
0	176786	3038697.022592348434	0
0	176792	3038703.626007223593	1
0	176793	3038726.928793070875	0
0	176799	3038736.70632216732	1
0	176800	3038836.681344894696	0
0	176827	3039211.155135296735	1
0	176828	3039213.50425024051	0
0	176849	3040033.269430170224	1
0	176850	3040118.841787942318	0
0	176856	3040133.397605855133	1
0	176858	3040305.427509376299	2
0	176859	3040322.125042756781	1
0	176864	3040333.816116087077	0
0	176877	3040751.608654760414	1
0	176879	3040796.640426882803	2
0	176881	3040935.33780368534	3
0	176882	3041104.760041314316	2
0	176887	3041173.112032742651	1
0	176892	3041198.797773536907	0
0	176898	3041277.496928038419	1
0	176900	3041338.890662151281	2
0	176902	3041401.083785791766	3
0	176904	3041519.62182281035	4
0	176905	3041707.205419142083	3
0	176907	3041723.489010073413	2
0	176912	3041741.359512674521	1
0	176917	3041767.0431711833	0
0	176927	3041842.18201708059	1
0	176928	3041860.164281367982	0
0	176934	3041911.485786110613	1
0	176936	3041971.581005723419	2
0	176937	3042029.978509514203	1
0	176942	3042080.718674312211	0
0	176970	3042904.282320727613	1
0	176972	3042913.676039167197	2
0	176974	3042974.603621596744	3
0	176976	3043094.13164682475	4
0	176978	3043287.192230511989	5
0	176979	3043306.4029868444	4
0	176984	3043493.802301837277	3
0	176990	3043517.4483498196	4
0	176991	3043570.67325296144	3
0	176997	3043603.054836336138	4
0	176998	3043618.551761646707	3
0	177004	3043802.367973837571	4
0	177006	3043805.484891826077	5
0	177007	3043869.381646852624	4
0	177013	3043906.128027167639	5
0	177015	3043906.565806687266	6
0	177017	3043936.197580280408	7
0	177018	3044083.182395638628	6
0	177023	3044188.837424053435	5
0	177029	3044281.833472888174	6
0	177031	3044378.40610938392	7
0	177033	3044520.437392503947	8
0	177034	3044525.284025753817	7
0	177040	3044641.265585967157	8
0	177041	3044663.933823050445	7
0	177043	3044697.769895463381	6
0	177048	3044738.057346647979	5
0	177053	3044754.872609972273	4
0	177062	3044803.06305225708	3
0	177068	3044837.881884924447	4
0	177069	3044877.202875006717	3
0	177074	3044886.187880829851	2
0	177079	3044912.945320141721	1
0	177084	3044929.753076515133	0
0	177097	3044969.914629739101	1
0	177098	3044984.34102897381	0
0	177146	3045666.150025321592	1
0	177148	3045693.178047020401	2
0	177149	3045722.319139543529	1
0	177154	3045766.140159536481	0
0	177202	3046903.712123281688	1
0	177204	3046962.800445750225	2
0	177205	3046962.917335941182	1
0	177210	3046973.675078330198	0
0	177244	3047481.854383422976	1
0	177245	3047486.223081828291	0
0	177279	3047934.319404762198	1
0	177280	3047951.236002356736	0
0	177286	3047952.406908791732	1
0	177288	3048015.118544530329	2
0	177290	3048077.24234258165	3
0	177291	3048133.110163930607	2
0	177297	3048154.405699427737	3
0	177298	3048180.755571472346	2
0	177304	3048255.450451928865	3
0	177305	3048271.256665825332	2
0	177310	3048276.899652378891	1
0	177315	3048336.885860214928	0
0	177412	3051488.043785081465	1
0	177414	3051528.114744253571	2
0	177415	3051530.589960033775	1
0	177420	3051554.792954308206	0
0	177454	3051965.368637455501	1
0	177456	3052024.253808766759	2
0	177457	3052025.67557161414	1
0	177462	3052038.887613925125	0
0	177482	3052345.430611292549	1
0	177483	3052372.650098147887	0
0	177496	3052411.385949695098	1
0	177497	3052421.434871015507	0
0	177503	3052424.841140592744	1
0	177504	3052438.742466047551	0
0	177552	3052933.927361936062	1
0	177553	3052934.646679429391	0
0	177588	3053951.015299808342	1
0	177590	3054035.42156925432	2
0	177592	3054043.48237122945	3
0	177594	3054069.874421654436	4
0	177596	3054149.424138110349	5
0	177598	3054202.359245210059	6
0	177600	3054414.056902682859	7
0	177601	3054470.657706684212	6
0	177603	3054477.301023864839	5
0	177608	3054479.547256543854	4
0	177614	3054508.316383261687	3
0	177619	3054576.09700202396	2
0	177624	3054578.759403451582	1
0	177629	3054620.191875548642	0
0	177674	3055207.780907573262	1
0	177676	3055231.433208908061	2
0	177677	3055262.644944925565	1
0	177683	3055277.096621891961	2
0	177685	3055277.831008736712	3
0	177687	3055279.779776385079	4
0	177688	3055329.337201279957	3
0	177693	3055343.506173683589	2
0	177698	3055360.179621345039	1
0	177704	3055444.214820477918	2
0	177705	3055500.829704504125	1
0	177710	3055563.524342905771	0
0	177802	3057433.280462323627	1
0	177803	3057502.872611597534	0
0	177872	3058925.834946375421	1
0	177873	3058938.108491864287	0
0	177908	3059832.002931191851	1
0	177910	3059873.656509738605	2
0	177912	3059949.402786546706	3
0	177913	3059975.310103062962	2
0	177919	3059982.493916446154	3
0	177920	3059988.984382869102	2
0	177924	3060019.456225254029	1
0	177929	3060119.435797734279	0
0	177935	3060300.341078849496	1
0	177937	3060483.716072650826	2
0	177939	3060648.146054481908	3
0	177940	3060653.787899641229	2
0	177945	3060905.449495689803	1
0	177950	3061024.061003037605	2
0	177952	3061070.878652165426	3
0	177954	3061141.487690387993	4
0	177955	3061156.954847476541	3
0	177960	3061343.705642281765	2
0	177966	3061393.95099088312	3
0	177968	3061458.529058796631	4
0	177970	3061483.311860217593	5
0	177972	3061613.545923716875	6
0	177974	3061830.018468531192	7
0	177976	3061951.049288578881	8
0	177978	3061951.783581672852	9
0	177979	3061970.351817335876	8
0	177982	3061974.537185695387	9
0	177984	3062019.924606640554	10
0	177991	3062224.167209870712	9
0	177996	3062245.228605631419	8
0	178001	3062313.714226975966	7
0	178006	3062321.635462891583	6
0	178012	3062348.096076302179	7
0	178014	3062408.030728715153	8
0	178015	3062461.627807989942	7
0	178021	3062474.546237145911	8
0	178022	3062476.325707681385	7
0	178027	3062591.833635434692	6
0	178032	3062594.650238791098	5
0	178037	3062616.807914552756	4
0	178042	3062659.522048481688	3
0	178047	3062722.873303895606	2
0	178052	3062727.973452824947	1
0	178057	3062776.730644948377	0
0	178070	3062865.510047696722	1
0	178071	3062922.443983074612	0
0	178077	3062974.963665805633	1
0	178078	3063026.577888554879	0
0	178084	3063072.940083789343	1
0	178085	3063147.28344308313	0
0	178091	3063196.385983190478	1
0	178092	3063218.258573053055	0
0	178112	3063671.736452542521	1
0	178113	3063702.381103163622	0
0	178133	3063999.493070718781	1
0	178134	3064064.225443602848	0
0	178140	3064071.80642323624	1
0	178141	3064087.482974481176	0
0	178147	3064119.851649815568	1
0	178149	3064238.911749263425	2
0	178150	3064295.391963977798	1
0	178155	3064356.584575329227	0
0	178169	3065034.510013289636	1
0	178171	3065085.776282283741	2
0	178172	3065127.892808872879	1
0	178174	3065146.72712811842	0
0	178212	3066377.813282158565	1
0	178213	3066381.376811179942	0
0	178219	3066389.340535374946	1
0	178220	3066489.727487650412	0
0	178224	3066492.13463454925	1
0	178228	3066565.687990581005	2
0	178230	3066601.591017480903	3
0	178232	3066632.956981769403	4
0	178233	3066674.10037846878	3
0	178238	3066693.884582884156	2
0	178244	3066759.388353262391	3
0	178245	3066781.955895895771	2
0	178248	3066783.199961820611	1
0	178256	3066821.026698976891	2
0	178257	3066890.186658175114	1
0	178262	3066895.106638034848	0
0	178282	3067047.688375259921	1
0	178283	3067058.445819668887	0
0	178296	3067282.077642771637	1
0	178297	3067296.212707349314	0
0	178325	3067951.0101551464	1
0	178327	3067969.451723485876	2
0	178329	3067992.141673235947	3
0	178331	3068074.067638212192	4
0	178333	3068078.034726934871	5
0	178335	3068179.700971001868	6
0	178336	3068195.362006702901	5
0	178338	3068203.943619107744	4
0	178349	3068292.809128327852	5
0	178350	3068335.808962511635	4
0	178356	3068464.415941984867	5
0	178358	3068507.443424932874	6
0	178360	3068537.714157508412	7
0	178362	3068594.95167720552	8
0	178363	3068617.746914312617	7
0	178368	3068737.298626028687	8
0	178369	3068928.92276824902	7
0	178374	3068931.980777737014	6
0	178378	3068962.051455750503	5
0	178383	3068993.442231954931	4
0	178389	3069030.980755821411	5
0	178391	3069057.705646515059	6
0	178392	3069067.854537050896	5
0	178397	3069085.924799861629	4
0	178403	3069301.858496647463	5
0	178405	3069345.027504843866	6
0	178406	3069377.922216814273	5
0	178412	3069450.109648467223	6
0	178414	3069522.172119713397	7
0	178416	3069544.212214893051	8
0	178418	3069593.805255622234	9
0	178419	3069646.055676358427	8
0	178424	3069684.178770709298	7
0	178429	3069910.849671381378	6
0	178434	3069949.73291406783	5
0	178440	3069965.088711611584	6
0	178441	3070079.941052774554	5
0	178446	3070109.586804386073	4
0	178452	3070646.629032883104	5
0	178454	3070695.27625101113	6
0	178456	3070704.872291894632	7
0	178458	3070830.192429358389	8
0	178460	3070889.406670537489	9
0	178462	3070987.650844494992	10
0	178464	3071012.664505891706	11
0	178466	3071077.33232532487	12
0	178467	3071115.077365475115	11
0	178472	3071316.759378755421	12
0	178473	3071349.816910256222	11
0	178479	3071353.677045898475	12
0	178481	3071580.281311802561	13
0	178482	3071682.528179050989	12
0	178485	3071706.481667163252	13
0	178486	3071709.394752883174	12
0	178491	3071776.248300715851	11
0	178496	3071780.256607459408	10
0	178501	3071783.018382573228	9
0	178506	3071815.260672442842	8
0	178512	3071849.262040525394	7
0	178522	3071918.521094725397	8
0	178523	3072057.291625062195	7
0	178529	3072147.041872876787	8
0	178530	3072172.863809594402	7
0	178536	3072215.52338085652	8
0	178538	3072295.706060380774	9
0	178539	3072417.630247362811	8
0	178545	3072454.958701498154	9
0	178547	3072514.121112855303	10
0	178549	3072514.265455538559	11
0	178550	3072568.875564745515	10
0	178555	3072602.650727673788	9
0	178557	3072621.596951499603	8
0	178562	3072639.73141952053	7
0	178567	3072715.094431113913	6
0	178572	3072750.759446964076	5
0	178575	3072750.94169232484	4
0	178582	3072776.657275680627	3
0	178587	3072787.833558250313	2
0	178592	3072857.245063744393	1
0	178597	3072883.178991038169	0
0	178610	3073024.037141710433	1
0	178612	3073028.116624978881	2
0	178614	3073037.319400957022	3
0	178619	3073114.757762402915	2
0	178625	3073119.404972647602	3
0	178626	3073150.767040820486	2
0	178631	3073159.245922091231	1
0	178637	3073188.465851808177	2
0	178639	3073308.20145945654	3
0	178640	3073328.02391867343	2
0	178645	3073336.694468944242	1
0	178651	3073341.701547373987	2
0	178652	3073372.771833405453	1
0	178657	3073411.524137337123	0
0	178670	3073542.767919438486	1
0	178672	3073574.2005197244	2
0	178673	3073622.19614380922	1
0	178678	3073667.339707563234	0
0	178698	3074047.536361441315	1
0	178700	3074052.640619392589	2
0	178701	3074057.721844691984	1
0	178706	3074152.539616176278	0
0	178719	3074554.91401747374	1
0	178720	3074562.956500558581	0
0	178747	3074921.450657722532	1
0	178748	3074950.512906770418	0
0	178782	3075407.572803451168	1
0	178783	3075419.029090082114	0
0	178880	3077289.499337206051	1
0	178881	3077340.925820466923	0
0	178902	3078267.418312120974	1
0	178904	3078422.955925640399	2
0	178906	3078498.57145362484	3
0	178907	3078504.133921273969	2
0	178912	3078714.549352958358	1
0	178914	3078719.448816671427	0
0	178948	3079130.667888499415	1
0	178950	3079130.718336002819	2
0	178951	3079149.468811205063	1
0	178956	3079234.590019825535	0
0	178962	3079242.69676136554	1
0	178963	3079258.360299841274	0
0	178994	3079764.388660029203	1
0	178995	3079770.143087697138	0
0	179015	3080230.160315062004	1
0	179016	3080238.688834229179	0
0	179057	3081476.040809371286	1
0	179058	3081497.704078579823	0
0	179079	3082013.434508882748	1
0	179081	3082018.637582165378	2
0	179083	3082073.693636009117	3
0	179084	3082122.04124368059	2
0	179090	3082210.685243922498	3
0	179091	3082239.164418900256	2
0	179096	3082344.323661754257	1
0	179101	3082569.520137709939	0
0	179107	3082585.743641122325	1
0	179109	3082631.486655549777	2
0	179111	3082773.192361938735	3
0	179113	3082901.036336964968	4
0	179114	3082981.484723646069	3
0	179119	3083042.35869849504	2
0	179124	3083259.246182635873	3
0	179126	3083266.738441175138	4
0	179128	3083367.52047486997	5
0	179130	3083719.120253818904	6
0	179132	3083850.690971711197	7
0	179134	3083966.765648051527	8
0	179136	3084106.782173675913	9
0	179138	3084173.213243600637	10
0	179140	3084186.116466924504	11
0	179141	3084451.221266384934	10
0	179146	3084681.769634872392	9
0	179148	3084685.132691544394	8
0	179154	3084693.254100014003	9
0	179155	3084694.632447169326	8
0	179160	3084715.688375311666	7
0	179165	3084763.717609362823	6
0	179170	3084773.914782959131	5
0	179175	3084781.960048443605	4
0	179180	3084784.577884843451	3
0	179186	3084814.831505360742	4
0	179187	3084873.547807847531	3
0	179192	3084917.49413262368	2
0	179197	3084924.718740498274	1
0	179202	3084968.103776608883	0
0	179226	3085225.32300927152	1
0	179228	3085244.600817103239	2
0	179230	3085258.16329760352	3
0	179231	3085296.863991328332	2
0	179237	3085322.111876049145	3
0	179238	3085338.393461221595	2
0	179244	3085365.258229093621	3
0	179245	3085373.303498949337	2
0	179250	3085375.448677954835	1
0	179255	3085404.547023038799	0
0	179296	3086653.47977794733	1
0	179297	3086675.799379977795	0
0	179310	3086770.665533145173	1
0	179311	3086776.944295537401	0
0	179324	3086828.650780794845	1
0	179326	3086834.34993603114	2
0	179328	3086840.290875287593	3
0	179330	3086845.856635750966	4
0	179331	3086851.281051727197	3
0	179336	3086900.730534118924	2
0	179341	3086914.325938177611	1
0	179346	3087020.912874944604	0
0	179352	3087028.265617905739	1
0	179353	3087041.921991679684	0
0	179359	3087051.751353011896	1
0	179360	3087093.008080295367	0
0	179388	3087439.870204016963	1
0	179389	3087505.617201349678	0
0	179401	3087899.221791182292	1
0	179403	3087971.77008374891	2
0	179405	3087975.370631264407	3
0	179407	3088000.460394705004	4
0	179409	3088086.966525494744	5
0	179410	3088118.17738256467	4
0	179416	3088128.657986237098	5
0	179418	3088464.789316643924	6
0	179420	3088480.578008593807	7
0	179422	3088585.396057378898	8
0	179424	3088617.865437278421	9
0	179426	3088703.71031205459	10
0	179427	3088897.493197822732	9
0	179433	3089024.662316162508	10
0	179434	3089122.423243673445	9
0	179437	3089124.637417321494	10
0	179439	3089154.097148612727	11
0	179440	3089171.700566536147	10
0	179445	3089217.211258234832	9
0	179448	3089217.725467899904	8
0	179455	3089236.115691325701	7
0	179460	3089262.990277019611	6
0	179466	3089278.822378961648	7
0	179468	3089300.862202571489	8
0	179469	3089360.752461106146	7
0	179474	3089368.157752359783	6
0	179479	3089378.115487998744	5
0	179484	3089418.505181407737	4
0	179489	3089435.734622517768	3
0	179494	3089461.412232382732	2
0	179499	3089493.502905363245	1
0	179502	3089493.581434273293	0
0	179524	3089679.512880445349	1
0	179525	3089682.711736978819	0
0	179545	3089921.114567579288	1
0	179546	3089947.593999084945	0
0	179559	3090060.415108827546	1
0	179565	3090111.382114141944	2
0	179566	3090181.329029413774	1
0	179572	3090197.523147582063	2
0	179574	3090274.565447633575	3
0	179575	3090279.825859067733	2
0	179580	3090302.34902382981	1
0	179586	3090369.265861848864	2
0	179587	3090387.230724344175	1
0	179593	3090435.702516913425	2
0	179594	3090469.733061301548	1
0	179600	3090491.917128809356	2
0	179601	3090495.625968265109	1
0	179607	3090511.015153669779	2
0	179608	3090561.762465732283	1
0	179613	3090563.000883403607	0
0	179626	3090765.73826872131	1
0	179627	3090797.312581458564	0
0	179640	3090926.667129827138	1
0	179641	3090950.477906287191	0
0	179647	3090985.598005065446	1
0	179648	3091010.326143346261	0
0	179668	3091302.037350943847	1
0	179669	3091343.602469593508	0
0	179740	3092836.359179414106	1
0	179741	3092843.35135613945	0
0	179761	3093198.991147583551	1
0	179762	3093201.342518859736	0
0	179775	3093422.99248072263	1
0	179776	3093425.259819419034	0
0	179782	3093435.740487972025	1
0	179783	3093451.708632664814	0
0	179810	3093877.94669796713	1
0	179811	3093890.601522032308	0
0	179845	3095014.590686303307	1
0	179846	3095052.020896198457	0
0	179894	3095970.209425747976	1
0	179895	3095990.221459172592	0
0	179936	3096394.28677526461	1
0	179937	3096411.628558146129	0
0	179971	3097210.49339551296	1
0	179972	3097218.70463986521	0
0	180006	3097898.973535522458	1
0	180007	3097902.118335213878	0
0	180020	3098157.780870524832	1
0	180022	3098240.41846223033	2
0	180023	3098264.554446541708	1
0	180028	3098275.709275759152	0
0	180041	3098515.62663866669	1
0	180042	3098522.49377923351	0
0	180083	3098789.249553712496	1
0	180085	3098821.599218746022	2
0	180086	3098839.064555554571	1
0	180091	3098842.111208230988	0
0	180104	3098932.966982707885	1
0	180105	3098985.372167670561	0
0	180125	3099271.449891251838	1
0	180127	3099323.916944307949	2
0	180128	3099328.834991471824	1
0	180133	3099389.212137434528	0
0	180146	3099510.758051021856	1
0	180147	3099549.1241801608	0
0	180174	3100035.434008426503	1
0	180175	3100100.596071332786	0
0	180181	3100105.589601645338	1
0	180183	3100108.068202298593	2
0	180184	3100119.810811662216	1
0	180189	3100120.053734319293	0
0	180223	3100383.16309635816	1
0	180225	3100449.398784568475	2
0	180226	3100479.777310445037	1
0	180232	3100488.894828126167	2
0	180234	3100598.99698911156	3
0	180235	3100653.209728014788	2
0	180241	3100666.140155495915	3
0	180242	3100683.106460227723	2