version 2
run Simulations-7-20191218-11:09:13-65753
attr configname Simulations
attr datetime 20191218-11:09:13
attr experiment Simulations
attr inifile omnetpp.ini
attr iterationvars "$seed=7, $0=3900"
attr iterationvarsf seed=7,3900-
attr measurement "$seed=7, $0=3900"
attr network WifiCelNetPassiveQueue
attr processid 65753
attr repetition 0
attr replication #0
attr resultdir results/Simulations/omnet
attr runnumber 7
attr seedset 7
itervar seed 7
param **.numJobs 10000
param *.OFFLOAD.deadline exponential(3900s)
param *.source.interArrivalTime exponential(120s)
param *.WIFI.serviceTime exponential(40s)
param *.CELL.serviceTime exponential(400s)
param *.OFFLOAD.switchToWi exponential(1524s)
param *.OFFLOAD.switchToCel exponential(3120s)
param *.LOCAL.serviceTime exponential(5s)
param *.REMOTE.serviceTime exponential(1s)

vector 0 WifiCelNetPassiveQueue.OFFLOAD queueLength:vector ETV
attr interpolationmode sample-hold
attr title "queue length, vector"
vector 1 WifiCelNetPassiveQueue.LOCAL serviceTime:vector ETV
attr interpolationmode none
attr title "wifi Service, vector"
attr unit s
vector 2 WifiCelNetPassiveQueue.LOCAL responseTime:vector ETV
attr interpolationmode none
attr title "Response Time, vector"
attr unit s
vector 3 WifiCelNetPassiveQueue.sink lifeTime:vector ETV
attr interpolationmode none
attr title "lifetime of arrived jobs, vector"
attr unit s
vector 4 WifiCelNetPassiveQueue.CELL serviceTime:vector ETV
attr interpolationmode none
attr title "wifi Service, vector"
attr unit s
vector 5 WifiCelNetPassiveQueue.CELL responseTime:vector ETV
attr interpolationmode none
attr title "Response Time, vector"
attr unit s
vector 6 WifiCelNetPassiveQueue.REMOTE serviceTime:vector ETV
attr interpolationmode none
attr title "wifi Service, vector"
attr unit s
vector 7 WifiCelNetPassiveQueue.REMOTE responseTime:vector ETV
attr interpolationmode none
attr title "Response Time, vector"
attr unit s
vector 8 WifiCelNetPassiveQueue.OFFLOAD storeDeadline:vector ETV
attr interpolationmode none
attr title "deadline, vector"
attr unit s
vector 9 WifiCelNetPassiveQueue.OFFLOAD storeWifiTime:vector ETV
attr interpolationmode none
attr title "Time in Wifi, vector"
attr unit s
vector 10 WifiCelNetPassiveQueue.WIFI serviceTime:vector ETV
attr interpolationmode none
attr title "wifi Service, vector"
attr unit s
vector 11 WifiCelNetPassiveQueue.WIFI responseTime:vector ETV
attr interpolationmode none
attr title "Response Time, vector"
attr unit s
vector 12 WifiCelNetPassiveQueue.OFFLOAD storeCelTime:vector ETV
attr interpolationmode none
attr title "Time in Cell, vector"
attr unit s
vector 13 WifiCelNetPassiveQueue.REMOTE queueLength:vector ETV
attr interpolationmode sample-hold
attr title "queue length, vector"
vector 14 WifiCelNetPassiveQueue.LOCAL queueLength:vector ETV
attr interpolationmode sample-hold
attr title "queue length, vector"
0	175098	3000059.221970112404	4
0	175102	3000106.027365406835	3
0	175108	3000204.733513588329	4
0	175110	3000210.071227137554	5
0	175112	3000319.095721203099	6
0	175114	3000365.664205823166	7
0	175115	3000402.240926844872	6
0	175117	3000409.637602429696	5
0	175122	3000445.305809432482	4
0	175128	3000467.059529604081	5
0	175130	3000473.793912605964	6
0	175132	3000481.589718760103	7
0	175133	3000490.519212169725	6
0	175138	3000491.499623722496	5
0	175144	3000536.917661564505	6
0	175145	3000567.518357228247	5
0	175150	3000577.66073541408	4
0	175155	3000608.74468631792	3
0	175160	3000672.132568552446	2
0	175165	3000731.323655692558	1
0	175170	3000733.008350118494	0
0	175187	3000903.348491554375	1
0	175188	3000912.083782634288	0
0	175194	3000921.201757408712	1
0	175195	3000947.261835899668	0
0	175209	3001143.9251361152	1
0	175211	3001322.438210298863	2
0	175213	3001380.297993705142	3
0	175214	3001383.978168382671	2
0	175220	3001482.776315744593	3
0	175222	3001550.175588377847	4
0	175224	3001627.307169202716	5
0	175225	3001739.923998022961	4
0	175231	3001773.88169050057	5
0	175233	3001843.193545591481	6
0	175235	3001887.775182938957	7
0	175236	3001925.76617018755	6
0	175241	3001938.605795025967	7
0	175242	3002078.75809309481	6
0	175247	3002186.577891655542	5
0	175252	3002387.142792634889	4
0	175257	3002444.681129164042	3
0	175263	3002551.861125140598	4
0	175265	3002624.121761648848	5
0	175266	3002633.500808320334	4
0	175271	3002658.358434835727	5
0	175273	3002676.38780114894	6
0	175274	3002975.119274095362	5
0	175280	3002977.025172562615	6
0	175282	3002986.961805206815	7
0	175283	3003027.554904257508	6
0	175289	3003466.526878757276	7
0	175291	3003553.244286507953	8
0	175293	3003603.454770307123	9
0	175295	3003810.543791853364	10
0	175297	3003844.344139322583	11
0	175298	3004003.55373265995	10
0	175304	3004087.423506255841	11
0	175306	3004133.774041401165	12
0	175308	3004143.624169908149	13
0	175310	3004287.943168830527	14
0	175312	3004342.36958357474	15
0	175313	3004465.726096404652	14
0	175318	3004792.03591972174	15
0	175319	3004965.740654980304	14
0	175324	3004983.477787824549	15
0	175325	3005079.578670287908	14
0	175331	3005147.454672977564	15
0	175332	3005149.544406411067	14
0	175336	3005219.3121028721	13
0	175342	3005247.786947923863	14
0	175344	3005250.733435984179	15
0	175345	3005272.348372580654	14
0	175350	3005274.728215621613	15
0	175352	3005282.240617904814	16
0	175354	3005430.832796388914	17
0	175356	3005529.404723992889	18
0	175358	3005541.620717304782	19
0	175359	3005651.947891382243	18
0	175365	3005813.744278819275	19
0	175367	3006011.542086133064	20
0	175369	3006032.980944020061	21
0	175370	3006083.236157403587	20
0	175375	3006085.831628009304	21
0	175376	3006279.39157351815	20
0	175379	3006281.802509991797	21
0	175382	3006320.906862920763	20
0	175386	3006338.038203547849	19
0	175390	3006397.065915940735	18
0	175395	3006399.625194930275	19
0	175396	3006505.841286208602	18
0	175401	3006751.611029640166	17
0	175403	3006805.698774415572	16
0	175408	3006861.919580788898	15
0	175414	3006877.85952598985	16
0	175416	3006897.930478097407	15
0	175421	3006923.08493608302	14
0	175427	3006930.381931487697	15
0	175428	3006988.243519894456	14
0	175433	3006993.951500304053	13
0	175436	3006994.662453356089	12
0	175443	3007045.074330838554	11
0	175448	3007052.404524705779	10
0	175453	3007073.772204254263	9
0	175456	3007074.432533782655	8
0	175463	3007094.903653705731	7
0	175468	3007103.281790147255	6
0	175473	3007110.847122071755	5
0	175476	3007111.009278225198	4
0	175483	3007126.826345958784	3
0	175489	3007144.708569965232	4
0	175490	3007168.388986965766	3
0	175495	3007205.64139096379	2
0	175498	3007206.087261713049	1
0	175505	3007246.133662887547	0
0	175550	3008417.744590177277	1
0	175551	3008437.139734935179	0
0	175565	3008815.290333892958	1
0	175567	3008826.542641997636	2
0	175568	3008886.954803284747	1
0	175570	3008900.601500236975	0
0	175587	3009165.401329997872	1
0	175588	3009215.316713559509	0
0	175608	3009737.611501204822	1
0	175609	3009775.997251330813	0
0	175636	3010325.297999582013	1
0	175637	3010533.476991906137	0
0	175741	3012931.226943619687	1
0	175742	3012977.46958400519	0
0	175755	3013133.500700996508	1
0	175756	3013167.069835162126	0
0	175762	3013172.079597133087	1
0	175764	3013296.448259555124	2
0	175765	3013332.154324848715	1
0	175770	3013335.856126062625	0
0	175839	3014135.205059256101	1
0	175841	3014169.409733337205	2
0	175842	3014180.415954722325	1
0	175847	3014220.394799549525	0
0	175875	3014843.823550107756	1
0	175876	3014873.538510616962	0
0	175882	3015043.61198742996	1
0	175883	3015067.705408329383	0
0	175889	3015378.584953881944	1
0	175890	3015423.686542410785	0
0	175896	3015453.066724043753	1
0	175897	3015531.039661613447	0
0	175900	3015578.251975792175	1
0	175902	3015596.984828118263	2
0	175904	3015607.95281645953	3
0	175905	3015609.787716131417	2
0	175910	3015627.319441028559	1
0	175916	3015648.469589276054	2
0	175917	3015666.766295765571	1
0	175922	3015764.535724400513	0
0	175928	3015777.542135992025	1
0	175929	3015786.945741214684	0
0	175981	3016958.197628348629	1
0	175982	3017005.827056957539	0
0	176044	3018246.624535907156	1
0	176045	3018355.608363084219	0
0	176115	3019471.613953188778	1
0	176117	3019644.933924820976	2
0	176119	3020157.584280727892	3
0	176121	3020191.38570198601	4
0	176123	3020278.665450580975	5
0	176125	3020279.058285226686	6
0	176126	3020406.232573686695	5
0	176131	3020522.527236487026	6
0	176133	3020565.637355912907	7
0	176135	3020734.345971534016	8
0	176137	3020734.885666279491	9
0	176139	3020897.151953492931	10
0	176140	3021268.596102920249	9
0	176146	3021402.328929425598	10
0	176147	3021436.229256020657	9
0	176152	3021442.48003632516	10
0	176153	3021471.519105437193	9
0	176157	3021532.511521645098	8
0	176161	3021590.201701581195	7
0	176167	3021658.170596053842	8
0	176168	3021706.924515838545	7
0	176172	3021805.126086052072	6
0	176176	3022029.995490216904	5
0	176182	3022095.030975538864	6
0	176183	3022370.056828299609	5
0	176188	3022432.195092710914	6
0	176189	3022570.091012126127	5
0	176194	3022640.15158692917	4
0	176199	3022790.361410779022	5
0	176201	3022891.700055145472	6
0	176203	3022964.118292940751	7
0	176204	3022997.187446954622	6
0	176210	3023052.561793028085	7
0	176212	3023152.597468074604	8
0	176213	3023241.674091971584	7
0	176219	3023274.616374626076	8
0	176221	3023300.282935173146	9
0	176222	3023328.574510719857	8
0	176227	3023365.508485767055	9
0	176229	3023497.891303714118	10
0	176231	3023525.922615907974	11
0	176233	3023551.75628922471	12
0	176234	3023564.849195727123	11
0	176238	3023611.910999644516	10
0	176244	3023762.043156319374	11
0	176245	3023926.708280371341	10
0	176250	3023998.582005871278	11
0	176252	3024059.004718226032	12
0	176254	3024247.68742947062	13
0	176255	3024292.288007649454	12
0	176260	3024343.922950529465	13
0	176261	3024393.825500155827	12
0	176267	3024585.742554987019	11
0	176273	3024604.08605948671	12
0	176274	3024646.927799109536	11
0	176279	3024651.736926648235	10
0	176285	3024652.648281626801	11
0	176286	3024691.550019224211	10
0	176291	3024695.434648927737	9
0	176297	3024729.262706830746	8
0	176303	3024757.554565033822	9
0	176305	3024763.138952168223	10
0	176306	3024809.676628540642	9
0	176311	3024904.701667048949	8
0	176317	3024958.103517574668	9
0	176318	3024963.346498252946	8
0	176324	3024978.253264328857	9
0	176325	3025013.964114004156	8
0	176331	3025018.296390121757	9
0	176333	3025069.126665794487	10
0	176334	3025164.676237062972	9
0	176341	3025203.009192015762	10
0	176343	3025222.512451164696	11
0	176345	3025342.905486372508	12
0	176347	3025356.580449305763	13
0	176348	3025356.621219564819	12
0	176354	3025397.673897611908	13
0	176356	3025458.969267747753	14
0	176357	3025492.249060877546	13
0	176363	3025548.044058096442	14
0	176364	3025591.56355460286	13
0	176369	3025612.406153799893	12
0	176373	3025815.077499387312	11
0	176379	3025817.271273435174	12
0	176381	3025823.663601230044	13
0	176383	3025911.992275940811	14
0	176384	3025943.33689707202	13
0	176390	3026008.916629495443	14
0	176391	3026158.489706493383	13
0	176395	3026226.691969360223	12
0	176401	3026315.158202345819	13
0	176402	3026316.651465113265	12
0	176408	3026342.34639775138	13
0	176409	3026388.657800491882	12
0	176414	3026524.75092615709	13
0	176416	3026552.672638404699	14
0	176418	3026572.78898025308	15
0	176419	3026739.372863321343	14
0	176425	3026814.18645467468	15
0	176427	3026975.65265248151	16
0	176429	3027004.923122336905	17
0	176431	3027043.730991719169	18
0	176432	3027092.914200921362	17
0	176438	3027136.671986405677	18
0	176440	3027500.995628775053	19
0	176441	3027550.470224625489	18
0	176444	3027551.785417706856	17
0	176451	3027597.351799899351	18
0	176453	3027647.936517275773	19
0	176455	3027653.376492727069	20
0	176456	3027669.855088194916	19
0	176460	3027688.435197957333	18
0	176466	3027704.783928496658	19
0	176468	3027835.721072470651	20
0	176469	3027977.666559686827	19
0	176473	3027990.330754287195	18
0	176476	3028071.25890341421	17
0	176481	3028098.82849459259	16
0	176487	3028112.013738404183	17
0	176488	3028116.427935154687	16
0	176494	3028142.209568366058	17
0	176495	3028195.572036344798	16
0	176503	3028256.449782747012	17
0	176504	3028261.602858968578	16
0	176509	3028350.979572062092	15
0	176514	3028423.460915688042	14
0	176519	3028462.02958359636	13
0	176524	3028469.969736152112	12
0	176530	3028476.525930883793	13
0	176531	3028507.778773385145	12
0	176537	3028511.633240924184	13
0	176539	3028540.871260492574	14
0	176540	3028604.103726361692	13
0	176551	3028670.4737315594	14
0	176553	3028963.745784465123	15
0	176555	3028994.2703544783	16
0	176557	3029065.420167792153	17
0	176559	3029301.434376249538	18
0	176561	3029358.684283436952	19
0	176563	3029416.523656778809	20
0	176564	3029469.944809519664	19
0	176566	3029475.820604183545	18
0	176571	3029507.926796359994	17
0	176576	3029513.812384097227	16
0	176580	3029514.351651076907	17
0	176585	3029550.989285997564	18
0	176587	3029559.278869251517	19
0	176588	3029580.795362073952	18
0	176593	3029594.0803824161	17
0	176599	3029596.749058662747	18
0	176600	3029599.340903672152	17
0	176606	3029609.212707301251	18
0	176608	3029649.269974307415	19
0	176609	3029703.83583156654	18
0	176614	3029706.235958100815	17
0	176624	3029774.984930964232	18
0	176625	3029831.34930289995	17
0	176631	3029835.073066767107	18
0	176632	3029881.17800933827	17
0	176637	3029892.634733679316	16
0	176643	3029972.363692434181	17
0	176644	3030127.553478580657	16
0	176650	3030152.992948848408	17
0	176651	3030161.445358720385	16
0	176656	3030163.350280155577	15
0	176662	3030169.269641687177	16
0	176663	3030180.083757360023	15
0	176668	3030211.946742474946	14
0	176674	3030230.342237287013	15
0	176675	3030255.331218602754	14
0	176680	3030273.399649437428	13
0	176685	3030281.601415637055	12
0	176690	3030317.05586818999	11
0	176695	3030338.427461233506	10
0	176701	3030382.268011305928	11
0	176703	3030458.054730495848	12
0	176704	3030491.467895106094	11
0	176709	3030585.183174786377	10
0	176715	3030588.927536839845	11
0	176716	3030643.700716654706	10
0	176722	3030654.307925233863	11
0	176723	3030671.544507430245	10
0	176728	3030683.155513256425	9
0	176733	3030706.793818325557	8
0	176738	3030724.223419064245	7
0	176743	3030809.308214689125	6
0	176748	3030810.692077390066	5
0	176753	3030814.165721149715	4
0	176758	3030854.262831683136	3
0	176761	3030854.7898448074	2
0	176768	3031043.268534990212	1
0	176774	3031066.152265301995	2
0	176776	3031088.452022909516	3
0	176777	3031090.770369214094	2
0	176783	3031092.505640353174	3
0	176784	3031143.026761268977	2
0	176789	3031144.040637840658	1
0	176794	3031241.934483910035	0
0	176808	3031817.657990819718	1
0	176810	3031931.89925180041	2
0	176812	3032169.151767155038	3
0	176814	3032375.465604997338	4
0	176816	3032392.390510498861	5
0	176817	3032393.0705506009	4
0	176822	3032617.102062623396	3
0	176827	3032644.835854580596	2
0	176832	3032716.695344702054	1
0	176838	3032781.542812075969	2
0	176840	3033049.848764962106	3
0	176842	3033123.501645370422	4
0	176843	3033130.097854837722	3
0	176849	3033169.695674454448	4
0	176851	3033192.4931632795	5
0	176852	3033204.604946203209	4
0	176858	3033213.525809710171	5
0	176860	3033271.220077267654	6
0	176861	3033273.62207055877	5
0	176865	3033308.222608406154	4
0	176871	3033472.078666602953	5
0	176873	3033600.44320835798	6
0	176874	3033618.293972969781	5
0	176879	3033720.706007625927	4
0	176883	3033772.653509992477	3
0	176889	3033829.142520639311	4
0	176891	3033875.323985082088	5
0	176893	3033894.811546349912	6
0	176895	3033959.431013523303	7
0	176896	3034210.934573443127	6
0	176902	3034296.771237192306	7
0	176904	3034302.427263630968	8
0	176906	3034316.780055348464	9
0	176908	3034474.498161963348	10
0	176910	3034489.648853557133	11
0	176912	3034658.213816768433	12
0	176913	3034680.486013030933	11
0	176918	3034686.869256716757	12
0	176919	3034715.619169206386	11
0	176924	3034831.614572949934	10
0	176929	3034903.740371959185	9
0	176934	3034934.777170548974	8
0	176940	3035001.237851761921	9
0	176942	3035006.696955834763	10
0	176944	3035025.523947878078	11
0	176945	3035315.583294550991	10
0	176950	3035316.35114667525	11
0	176952	3035414.764151541913	12
0	176953	3035421.964745004045	11
0	176955	3035427.671148506839	10
0	176965	3035488.970143590024	9
0	176970	3035491.658488116925	8
0	176975	3035498.176321153298	7
0	176981	3035553.143789454501	8
0	176982	3035623.085764158621	7
0	176988	3035636.785245335575	8
0	176989	3035686.314951721352	7
0	176994	3035707.650841215661	6
0	177000	3035715.561539048552	7
0	177002	3035758.061868025422	8
0	177004	3035788.159972496273	9
0	177005	3035826.093347434018	8
0	177010	3035853.258869476081	7
0	177016	3035870.819345431877	8
0	177017	3035890.591149973747	7
0	177022	3035973.467941059018	6
0	177027	3035979.932909739414	5
0	177032	3035988.421927303432	4
0	177037	3036018.557641687377	3
0	177042	3036046.9453019363	2
0	177048	3036054.993140713863	3
0	177049	3036125.889756876064	2
0	177054	3036166.474573522865	1
0	177059	3036223.673845493478	0
0	177100	3037228.910323368866	1
0	177101	3037276.399052450581	0
0	177135	3037936.395052750336	1
0	177137	3037958.909181395876	2
0	177139	3037966.120060328585	3
0	177140	3037995.270747627758	2
0	177145	3037998.348092436118	1
0	177150	3038004.742456573003	0
0	177212	3039633.804035585417	1
0	177213	3039642.134991161073	0
0	177254	3040849.441455387742	1
0	177255	3040888.291975143061	0
0	177275	3041729.706120461355	1
0	177276	3041735.636448896025	0
0	177317	3042525.0064712249	1
0	177318	3042580.683177302081	0
0	177359	3043544.475499703094	1
0	177360	3043617.1884051883	0
0	177415	3044263.165829060373	1
0	177416	3044338.889885435685	0
0	177465	3044965.06724879102	1
0	177466	3045015.92326097096	0
0	177472	3045131.010533852235	1
0	177473	3045307.930548579933	0
0	177479	3045511.238865228165	1
0	177481	3045552.655706525177	2
0	177482	3045555.977325329698	1
0	177487	3045586.378965636034	2
0	177489	3045611.334475261102	3
0	177490	3045621.814420631378	2
0	177496	3045629.096967826063	3
0	177498	3045637.1670450571	4
0	177500	3045717.612952801887	5
0	177502	3045732.366464650006	6
0	177504	3045895.72297910134	7
0	177505	3046099.258367410755	6
0	177509	3046109.628738486866	5
0	177512	3046131.716673191003	6
0	177514	3046180.876351843776	5
0	177519	3046185.97304866328	4
0	177524	3046193.577570318256	3
0	177529	3046227.521428074789	2
0	177535	3046319.312874817983	3
0	177536	3046330.713725213763	2
0	177541	3046332.284165648115	1
0	177546	3046398.49383249338	0
0	177570	3046618.434642641968	1
0	177571	3046687.758333301718	0
0	177584	3046750.735607642561	1
0	177586	3046782.851527797131	2
0	177587	3046855.509392476217	1
0	177592	3046862.909778919607	0
0	177605	3046995.629672728438	1
0	177606	3047001.720796632686	0
0	177633	3047483.008255677122	1
0	177634	3047490.033970065865	0
0	177668	3048300.629264003181	1
0	177670	3048383.793121246373	2
0	177671	3048457.601609910523	1
0	177677	3048465.870511616246	2
0	177679	3048476.664508365769	3
0	177680	3048483.006088862319	2
0	177685	3048507.049488908363	1
0	177691	3048522.104909241545	2
0	177692	3048526.463439284731	1
0	177698	3048645.429577248344	2
0	177699	3048666.520374716475	1
0	177705	3048686.909731397775	2
0	177706	3048698.329087264724	1
0	177711	3048704.44869609329	0
0	177738	3049036.780995576234	1
0	177739	3049084.176741524971	0
0	177745	3049102.91569477061	1
0	177746	3049127.676369513431	0
0	177802	3050843.6737982632	1
0	177804	3051047.795534927172	2
0	177806	3051106.821318118104	3
0	177807	3051341.485706367613	2
0	177812	3051475.44587276393	1
0	177818	3051495.844807722859	2
0	177820	3051622.362829309525	3
0	177822	3051723.134238021623	4
0	177824	3051834.502983673324	5
0	177826	3051892.372283989077	6
0	177827	3052005.347892571873	5
0	177829	3052024.429966031697	4
0	177834	3052069.156292446331	3
0	177839	3052127.515083024277	2
0	177845	3052136.815650346724	3
0	177847	3052142.739619837691	4
0	177849	3052189.691842131543	3
0	177854	3052213.112742329212	2
0	177859	3052228.194247336062	1
0	177865	3052229.188689855309	2
0	177866	3052240.510507638393	1
0	177871	3052244.23146047455	0
0	177895	3052580.228065317275	1
0	177896	3052619.984945053472	0
0	177909	3052713.938499558728	1
0	177910	3052754.107396643466	0
0	177944	3052945.256937989523	1
0	177945	3052978.452628365791	0
0	177979	3053505.952963792764	1
0	177981	3053558.115646484224	2
0	177982	3053560.329110242408	1
0	177988	3053583.850422942793	2
0	177990	3053590.711516277343	3
0	177992	3053600.283217144906	4
0	177994	3053618.752400130768	5
0	177995	3053650.726022628223	4
0	178000	3053725.336110552656	3
0	178005	3053729.646969920498	2
0	178010	3053758.806787913404	1
0	178015	3053781.742240471679	0
0	178049	3054143.505422943636	1
0	178050	3054153.530853161311	0
0	178098	3055553.024963288579	1
0	178099	3055586.470397007348	0
0	178196	3057581.355903812508	1
0	178197	3057598.370716608608	0
0	178260	3058938.877884016283	1
0	178261	3058939.086576885854	0
0	178267	3058953.26564148651	1
0	178269	3059363.300376206289	2
0	178271	3059457.160368531603	3
0	178273	3059489.667409489444	4
0	178275	3059686.946613869613	5
0	178276	3059702.568619157483	4
0	178281	3059782.036200694985	5
0	178282	3059784.486006648228	4
0	178284	3059835.140852873187	3
0	178289	3059860.14417550072	2
0	178294	3059905.818521474707	1
0	178299	3059932.09024522645	0
0	178312	3059986.086152014304	1
0	178313	3060041.503320268577	0
0	178366	3060787.342187442413	1
0	178368	3060836.354539398101	2
0	178370	3060924.331336217178	3
0	178372	3060925.273346705147	4
0	178374	3060950.141724941788	5
0	178376	3060981.592228236247	6
0	178377	3061013.141116815122	5
0	178383	3061485.255188080782	6
0	178384	3061527.866408781262	5
0	178390	3061602.938628243408	6
0	178391	3061652.154954403317	5
0	178396	3061888.074797128134	6
0	178397	3061900.079267863936	5
0	178402	3061989.630301529205	6
0	178403	3062153.219086950121	5
0	178408	3062329.959617504835	4
0	178414	3062411.54380412041	5
0	178415	3062416.745280736338	4
0	178420	3062520.319982601577	5
0	178421	3062641.098282346413	4
0	178426	3062660.272609708264	3
0	178428	3062665.306174929091	2
0	178433	3062735.282183629104	1
0	178438	3062758.854649715701	0
0	178462	3063510.000735614307	1
0	178463	3063548.470330930295	0
0	178477	3063568.637908823	1
0	178478	3063584.253256943921	0
0	178491	3063905.885086769667	1
0	178493	3063984.749003556264	2
0	178495	3064043.127323473362	3
0	178496	3064120.132431268802	2
0	178502	3064170.918532240811	3
0	178504	3064192.834208148463	4
0	178506	3064197.794794425108	5
0	178508	3064238.651714229752	6
0	178509	3064240.538154144876	5
0	178514	3064354.949598416667	6
0	178516	3064417.847194423177	7
0	178518	3064454.218073350984	8
0	178520	3064509.63934736866	9
0	178522	3064519.507531711033	10
0	178523	3064528.020008568176	9
0	178527	3064551.360288250517	8
0	178531	3064571.013393809311	7
0	178536	3064607.327250582496	6
0	178542	3064664.761281634816	7
0	178543	3064875.235362175524	6
0	178549	3064920.947718005948	7
0	178551	3065001.489813310384	8
0	178552	3065020.582003024453	7
0	178554	3065031.068322468691	6
0	178559	3065032.319270281196	5
0	178565	3065061.71157597495	6
0	178566	3065090.541728799034	5
0	178576	3065151.308522231953	6
0	178577	3065291.488947690202	5
0	178583	3065292.507094641221	6
0	178584	3065305.148839247309	5
0	178589	3065311.605823754763	4
0	178594	3065317.796711011337	3
0	178599	3065333.897727222007	2
0	178605	3065336.608378864921	3
0	178606	3065348.318949006182	2
0	178611	3065379.764753419881	1
0	178617	3065403.906831886695	2
0	178618	3065459.287639613241	1
0	178623	3065502.665396972042	0
0	178636	3065626.159888649307	1
0	178637	3065631.987436432445	0
0	178678	3066301.651957600031	1
0	178680	3066396.258921402393	2
0	178682	3066431.313105804366	3
0	178683	3066561.348209679193	2
0	178688	3066581.971109416259	1
0	178694	3066627.418687648974	2
0	178695	3066651.64138480228	1
0	178700	3066663.204466473048	0
0	178706	3066728.669595994521	1
0	178707	3066743.776342245133	0
0	178720	3066811.003304504191	1
0	178721	3066828.757144488804	0
0	178776	3067748.630799992753	1
0	178778	3067750.427626490423	2
0	178780	3067781.578435976257	3
0	178781	3067787.318900613403	2
0	178786	3068001.748525880433	1
0	178791	3068015.199237926626	0
0	178797	3068094.419993908552	1
0	178798	3068108.774762517973	0
0	178804	3068156.817075174959	1
0	178805	3068164.085486392918	0
0	178832	3068562.353941351945	1
0	178834	3068626.662231256616	2
0	178835	3068651.299712887278	1
0	178840	3068655.038898015383	0
0	178853	3069040.598628140033	1
0	178855	3069076.725226920962	2
0	178856	3069183.103241267911	1
0	178861	3069195.391146101524	0
0	178867	3069232.970302877472	1
0	178868	3069282.107708378593	0
0	178903	3069776.212988308798	1
0	178905	3069852.532749466526	2
0	178907	3069962.116925530411	3
0	178909	3070014.550606381795	4
0	178911	3070015.964862615699	5
0	178913	3070067.815430389102	6
0	178915	3070110.496685715381	7
0	178917	3070164.901633819079	8
0	178918	3070234.638937841812	7
0	178924	3070247.427647287895	8
0	178925	3070249.630056366856	7
0	178930	3070328.634418349354	6
0	178935	3070438.635129453236	5
0	178940	3070472.287366139353	6
0	178941	3070500.158375420799	5
0	178946	3070592.06985519126	4
0	178951	3070824.499677749417	5
0	178952	3070866.743210862642	4
0	178955	3070867.221481970455	3
0	178963	3070879.202946072346	4
0	178964	3070885.595816078282	3
0	178970	3070920.179656649511	4
0	178971	3070970.726362601852	3
0	178976	3071095.219502263309	2
0	178981	3071230.258620013691	3
0	178983	3071242.916163748386	4
0	178985	3071277.260950931416	5
0	178986	3071330.096515481611	4
0	178992	3071395.624545961841	5
0	178994	3071461.849248529038	6
0	178995	3071582.764476233617	5
0	179000	3071715.668852319593	4
0	179004	3071995.595920365643	3
0	179009	3072053.863369666887	2
0	179015	3072095.456341215997	3
0	179017	3072129.029875412283	4
0	179018	3072158.439264901116	3
0	179023	3072285.345818645899	2
0	179028	3072374.706195513691	3
0	179029	3072562.425985092895	2
0	179035	3072583.35360087432	3
0	179036	3072653.390683504486	2
0	179041	3072748.93223562672	3
0	179043	3072786.121103246301	4
0	179045	3072850.623980215449	5
0	179046	3073036.255372296433	4
0	179051	3073075.757310684569	5
0	179053	3073085.93725831211	6
0	179054	3073102.312889289385	5
0	179060	3073203.277435600996	6
0	179061	3073244.022155692503	5
0	179067	3073250.371523128558	6
0	179068	3073285.824729066888	5
0	179070	3073356.376742598586	4
0	179075	3073374.268829793843	3
0	179080	3073456.757366136687	2
0	179085	3073462.261362664891	1
0	179091	3073468.030381684949	2
0	179092	3073484.757364661064	1
0	179097	3073520.487778931021	0
0	179117	3073908.749479305194	1
0	179118	3073937.373241684449	0
0	179149	3074398.896698682741	1
0	179150	3074406.863488772134	0
0	179212	3075408.708672904784	1
0	179214	3075451.794225904808	2
0	179216	3075465.007631347229	3
0	179217	3075503.063321210671	2
0	179222	3075557.157139128229	1
0	179227	3075622.683196131518	0
0	179233	3075647.985691422321	1
0	179234	3075670.864644984345	0
0	179248	3076136.689902193564	1
0	179250	3076352.168130011811	2
0	179251	3076421.07588727973	1
0	179256	3076463.409352953022	2
0	179258	3076731.017711059083	3
0	179260	3076737.718614767231	4
0	179262	3076832.544865980913	5
0	179264	3076984.079170817635	6
0	179266	3077240.961717950995	7
0	179267	3077259.699898585112	6
0	179271	3077367.591061301308	5
0	179273	3077400.637220681628	4
0	179278	3077422.553456733267	3
0	179283	3077427.69701996923	2
0	179288	3077453.805036297628	1
0	179293	3077472.581595965098	0
0	179382	3078856.116199736609	1
0	179383	3078887.327711013325	0
0	179389	3078923.846355537899	1
0	179390	3078962.158888916242	0
0	179396	3079028.805061937942	1
0	179397	3079086.744856819607	0
0	179403	3079088.361155035715	1
0	179405	3079092.476843554886	2
0	179406	3079149.810536676474	1
0	179411	3079207.540617097015	0
0	179431	3079435.221903491827	1
0	179432	3079450.148312218419	0
0	179460	3080611.312692831857	1
0	179462	3080685.597413347126	2
0	179464	3080751.81753732755	3
0	179466	3080805.042448260834	4
0	179468	3080939.169983422722	5
0	179469	3081011.462229938558	4
0	179475	3081203.172902027269	5
0	179476	3081242.055583294381	4
0	179482	3081250.636030226611	5
0	179483	3081515.17118037179	4
0	179487	3081547.925947206354	3
0	179493	3081560.376401799221	4
0	179495	3081573.450164133933	5
0	179496	3081764.064627851272	4
0	179502	3081812.331703978638	5
0	179504	3081898.49296750912	6
0	179506	3082057.092819394673	7
0	179508	3082197.465225371096	8
0	179510	3082365.738427591735	9
0	179512	3082411.857387560328	10
0	179514	3082412.34892634585	11
0	179516	3082471.650013841898	12
0	179517	3082541.07461483769	11
0	179523	3082551.992752110268	12
0	179525	3082558.767380073218	13
0	179527	3082573.722416079435	14
0	179529	3082750.700990942045	15
0	179530	3082755.276373713299	14
0	179534	3082932.725185803116	13
0	179540	3082953.629360752912	14
0	179542	3083048.346205589294	15
0	179543	3083097.220202979464	14
0	179548	3083106.159109662942	13
0	179554	3083116.534560531489	14
0	179556	3083137.008127138615	15
0	179558	3083153.620842713754	16
0	179560	3083232.747268268719	17
0	179561	3083269.46278047042	16
0	179566	3083345.310288487761	17
0	179567	3083364.374588954921	16
0	179571	3083419.3243187499	15
0	179576	3083445.547221581446	14
0	179581	3083466.290339137341	13
0	179585	3083755.632853204283	12
0	179591	3083970.836491489303	13
0	179592	3084011.686065858681	12
0	179596	3084047.202000066882	11
0	179599	3084093.778575997091	12
0	179601	3084134.987893880635	13
0	179602	3084135.576899714152	12
0	179607	3084225.885169262225	11
0	179612	3084238.903863417357	10
0	179617	3084245.133775930041	9
0	179622	3084268.964540679503	8
0	179627	3084280.178019093196	7
0	179632	3084373.642462108104	6
0	179637	3084387.24370748682	5
0	179642	3084397.761862928073	4
0	179647	3084429.806709873137	3
0	179656	3084466.838325231169	2
0	179661	3084550.673868978786	1
0	179667	3084557.023747938596	2
0	179668	3084611.535035338791	1
0	179674	3084629.793944533006	2
0	179675	3084677.795736034661	1
0	179680	3084758.442616266663	0
0	179715	3085402.766354468356	1
0	179717	3085493.498841658764	2
0	179719	3085541.525439423167	3
0	179720	3085542.044720515283	2
0	179725	3085597.830668094467	3
0	179727	3085608.09906683114	4