version 2
run Simulations-12-20191215-22:53:55-18910
attr configname Simulations
attr datetime 20191215-22:53:55
attr experiment Simulations
attr inifile omnetpp.ini
attr iterationvars "$seed=7, $0=6600"
attr iterationvarsf seed=7,6600-
attr measurement "$seed=7, $0=6600"
attr network WifiCelNetPassiveQueue
attr processid 18910
attr repetition 0
attr replication #0
attr resultdir results/Simulations/omnet
attr runnumber 12
attr seedset 7
itervar seed 7
param **.numJobs 14000
param *.OFFLOAD.deadline exponential(6600s)
param *.source.interArrivalTime exponential(120s)
param *.WIFI.serviceTime exponential(40s)
param *.CELL.serviceTime exponential(400s)
param *.OFFLOAD.switchToWi exponential(1524s)
param *.OFFLOAD.switchToCel exponential(3120s)
param *.LOCAL.serviceTime exponential(5s)
param *.REMOTE.serviceTime exponential(1s)

vector 0 WifiCelNetPassiveQueue.CELL serviceTime:vector ETV
attr interpolationmode none
attr title "wifi Service, vector"
attr unit s
vector 1 WifiCelNetPassiveQueue.CELL responseTime:vector ETV
attr interpolationmode none
attr title "Response Time, vector"
attr unit s
vector 2 WifiCelNetPassiveQueue.OFFLOAD queueLength:vector ETV
attr interpolationmode sample-hold
attr title "queue length, vector"
vector 3 WifiCelNetPassiveQueue.REMOTE serviceTime:vector ETV
attr interpolationmode none
attr title "wifi Service, vector"
attr unit s
vector 4 WifiCelNetPassiveQueue.REMOTE responseTime:vector ETV
attr interpolationmode none
attr title "Response Time, vector"
attr unit s
vector 5 WifiCelNetPassiveQueue.sink lifeTime:vector ETV
attr interpolationmode none
attr title "lifetime of arrived jobs, vector"
attr unit s
vector 6 WifiCelNetPassiveQueue.OFFLOAD storeDeadline:vector ETV
attr interpolationmode none
attr title "deadline, vector"
attr unit s
vector 7 WifiCelNetPassiveQueue.OFFLOAD storeWifiTime:vector ETV
attr interpolationmode none
attr title "Time in Wifi, vector"
attr unit s
vector 8 WifiCelNetPassiveQueue.WIFI serviceTime:vector ETV
attr interpolationmode none
attr title "wifi Service, vector"
attr unit s
vector 9 WifiCelNetPassiveQueue.WIFI responseTime:vector ETV
attr interpolationmode none
attr title "Response Time, vector"
attr unit s
vector 10 WifiCelNetPassiveQueue.REMOTE queueLength:vector ETV
attr interpolationmode sample-hold
attr title "queue length, vector"
vector 11 WifiCelNetPassiveQueue.OFFLOAD storeCelTime:vector ETV
attr interpolationmode none
attr title "Time in Cell, vector"
attr unit s
vector 12 WifiCelNetPassiveQueue.LOCAL serviceTime:vector ETV
attr interpolationmode none
attr title "wifi Service, vector"
attr unit s
vector 13 WifiCelNetPassiveQueue.LOCAL responseTime:vector ETV
attr interpolationmode none
attr title "Response Time, vector"
attr unit s
vector 14 WifiCelNetPassiveQueue.LOCAL queueLength:vector ETV
attr interpolationmode sample-hold
attr title "queue length, vector"
0	87490	1500146.612511377506	216.62275622643
0	87495	1500175.824172634968	29.211661257462
0	87509	1500729.903815588312	554.07964295334
0	87732	1503180.245271414465	391.61459122548
0	87739	1503282.792156465875	102.54688505141
0	87747	1503608.598428272169	325.80627180629
0	87795	1504497.906962262361	66.219987646489
0	87828	1506057.517003141374	1559.610040879
0	87841	1506398.227488023042	340.71048488167
0	87957	1508253.207384361089	314.99071270316
0	87962	1508333.45714416332	80.249759802231
0	87999	1509493.255732994394	1128.2735431535
0	88008	1509712.61576142887	219.36002843448
0	88019	1509988.514526160276	275.89876473141
0	88028	1510213.280938970748	224.76641281047
0	88039	1510419.645901570041	206.36496259929
0	88054	1511238.309530228265	818.66362865822
0	88063	1511548.991398280138	310.68186805187
0	88071	1511713.679200297454	164.68780201732
0	88230	1513296.585219573023	310.53621820083
0	88237	1513450.653480765353	154.06826119233
0	88248	1513655.382582556902	204.72910179155
0	88263	1514331.109602492149	675.72701993525
0	88276	1514610.278041009303	279.16843851715
0	88308	1515657.791036975177	1047.5129959659
0	88382	1516043.550985571457	34.240184882407
0	88389	1516147.323213268303	103.77222769685
0	88404	1516375.13060991284	227.80739664454
0	88418	1516714.016277060838	338.885667148
0	88464	1517394.273080608256	435.68273905592
0	88841	1523520.106509035521	334.32047113378
0	88850	1523751.948146138618	231.8416371031
0	88881	1525045.13789035182	1293.1897442132
0	88894	1525337.454960478056	292.31707012624
0	88916	1526308.620349947804	971.16538946975
0	89178	1529341.75751728239	219.76142457978
0	89187	1529606.312592377016	264.55507509463
0	89200	1529972.084033315861	365.77144093884
0	89210	1530231.513843303291	259.42980998743
0	89252	1530733.448051702945	59.226708791783
0	89277	1531509.542228514536	776.09417681159
0	89282	1531785.464668740087	275.92244022555
0	89310	1532584.410606215911	798.94593747582
0	89936	1542051.123186436147	342.64340003367
0	89990	1542891.446421378097	39.46369815256
0	89997	1543018.641911587119	127.19549020902
0	90003	1543077.849210860949	59.20729927383
0	90076	1543902.903381853981	256.59881513711
0	90085	1544069.303188094016	166.39980624003
0	90090	1544071.756600100009	2.453412005993
0	90103	1544177.362012789012	105.605412689
0	90114	1544826.829589284475	649.46757649546
0	90119	1544910.50722637599	83.677637091515
0	90126	1544968.522143604847	58.014917228857
0	90138	1545419.20733576841	450.68519216356
0	90220	1547255.906426087991	913.96765048984
0	91294	1564319.282868962168	735.80245775632
0	91311	1564729.811263661729	410.52839469956
0	91316	1565149.607975985653	419.79671232392
0	91327	1565926.302259361689	776.69428337604
0	91334	1566115.235541054211	188.93328169252
0	91339	1566161.988403388983	46.752862334772
0	91346	1566192.687840634479	30.699437245496
0	91355	1566288.711686242423	96.023845607944
0	91384	1566765.486156773776	476.77447053135
0	91389	1566773.723235768449	8.237078994673
0	91406	1567032.96168113071	259.23844536226
0	91848	1571568.230875253652	71.392593189321
0	91859	1571696.04219544198	118.18065203679
0	91885	1572653.898757839089	957.85656239711
0	92200	1576799.51861913974	66.570080221378
0	92231	1577510.840139486771	410.46398599235
0	92242	1577863.349463507998	352.50932402123
0	92275	1578867.963513488636	1004.6140499806
0	92374	1580135.323461473672	621.51724573724
0	92651	1585382.476322835478	207.44783820723
0	92664	1585749.195819005578	366.7194961701
0	92705	1586717.215894000729	968.02007499515
0	92727	1587583.227662781224	866.0117687805
0	93505	1598326.420792085743	19.473323048625
0	93527	1598791.960760234907	329.97790941326
0	93716	1601854.397281482492	445.92299602973
0	93743	1602703.360303785173	848.96302230268
0	93752	1602777.361255354204	74.000951569031
0	93787	1603603.574725910588	826.21347055638
0	93816	1604658.718078802316	1055.1433528917
0	93821	1604851.001187486432	192.28310868412
0	93830	1605114.429613662492	263.42842617606
0	93861	1605897.476738970876	783.04712530838
0	93882	1606396.510391603416	499.03365263254
0	93905	1606889.758279492521	493.24788788911
0	93930	1607850.74489057364	960.98661108112
0	93939	1607886.915300658091	36.170410084451
0	93946	1607943.848956334169	56.933655676078
0	93959	1608236.834938160755	292.98598182659
0	93969	1608587.643566803785	350.80862864303
0	94004	1609111.2907720038	423.78635588887
0	94025	1609644.628071126206	533.33729912241
0	94046	1610176.083140150071	531.45506902387
0	94081	1611130.258262403807	954.17512225374
0	94510	1614540.248486516583	272.67733698597
0	95244	1626869.387679605479	126.64132254375
0	95249	1627028.719034059031	159.33135445355
0	95256	1627067.337805228048	38.618771169017
0	95265	1627284.866427135102	217.52862190705
0	95274	1627333.06365157432	48.197224439218
0	95283	1627604.653965462655	271.59031388834
0	95288	1627739.753178434775	135.09921297212
0	95299	1628276.537606969526	536.78442853475
0	95306	1628345.568813590509	69.031206620983
0	95327	1628510.547531804885	164.97871821438
0	95349	1629259.712687422788	749.1651556179
0	95726	1634655.352350034553	1205.0741244097
0	95966	1636652.490442836664	20.097082141337
0	95979	1636732.884426840812	80.393984004148
0	95986	1636917.950508586443	185.06608174563
0	95991	1636990.259207415182	72.308698828739
0	96021	1638641.385292734413	1600.7039453649
0	96154	1639814.571030649021	168.09801588726
0	96161	1639853.486673435381	34.260418680498
0	96170	1640161.141345578499	188.07414050433
0	96194	1640920.258693812402	759.1173482339
0	96373	1643352.929498082818	264.31568567683
0	96669	1649004.16172962407	876.4215072501
0	96700	1650084.695251881869	1080.5335222578
0	96735	1650908.834896811989	824.13964493012
0	96788	1651814.223627818593	905.3887310066
0	96817	1652310.570987131035	496.34735931244
0	96828	1652558.241309638673	247.67032250764
0	96839	1653024.525600831538	466.28429119286
0	96846	1653082.4745938164	57.948992984862
0	96859	1653448.129070864532	365.65447704813
0	96868	1653719.00658689469	270.87751603016
0	96875	1653873.449767390283	154.44318049559
0	96924	1656215.180481256071	2341.7307138658
0	97187	1658159.406608054567	568.61956224231
0	97200	1658705.99586695251	546.58925889794
0	97205	1658834.585080019877	128.58921306737
0	97210	1659208.494249504981	373.9091694851
0	97221	1659542.040135681772	333.54588617679
0	97230	1659794.207955167644	252.16781948587
0	97253	1660642.777403600252	848.56944843261
0	97286	1661457.37614819816	814.59874459791
0	97297	1661815.154382404827	357.77823420667
0	97316	1662290.06071671111	474.90633430628
0	97321	1662304.854765233499	14.794048522389
0	97326	1662368.150057200689	63.29529196719
0	97331	1662412.400512068912	44.250454868223
0	97348	1662804.576114584483	392.17560251557
0	97355	1662869.70365538926	65.127540804777
0	97360	1662913.92651263751	44.22285724825
0	97367	1663044.306367420072	130.37985478256
0	97378	1663301.531731840338	257.22536442027
0	97394	1663564.193576803505	262.66184496317
0	97847	1670453.053852859786	962.86104659156
0	97855	1670853.569779065675	400.51592620589
0	98133	1674501.547592268947	511.05072605949
0	98140	1674598.339960089393	96.792367820446
0	98153	1674945.480586583127	347.14062649373
0	98426	1678542.557535686212	141.9088296877
0	98432	1678672.254097464143	129.69656177793
0	98598	1681849.059515637398	138.654410345
0	98603	1681857.772399889694	8.712884252296
0	98614	1682041.066879596929	183.29447970723
0	98623	1682189.578606679301	148.51172708237
0	98638	1682790.606899317533	601.02829263823
0	98815	1686194.405606970125	692.12265472966
0	98827	1686942.837266626026	748.4316596559
0	98883	1687506.115090461177	127.39939966678
0	98896	1687843.075073389044	336.95998292787
0	98901	1687847.56302817789	4.487954788846
0	98932	1688800.51488947385	952.95186129596
0	99079	1690767.902003303301	86.048367020449
0	99086	1690884.099528269001	116.1975249657
0	99091	1690928.836400012474	44.736871743473
0	99107	1691709.657800173178	631.54454370123
0	99190	1692909.55459233492	721.70205282504
0	99265	1694208.534773035698	823.37904559285
0	99294	1694776.785094721756	19.180621342099
0	99364	1695750.097417161875	169.04138960329
0	99790	1703702.990221322974	362.01666305156
0	99803	1703991.101400795448	288.11117947247
0	99824	1704543.371720023051	552.2703192276
0	100147	1708742.787405193343	456.50545255662
0	100443	1713443.138225933454	161.40555783986
0	100450	1713797.601693126917	306.17117558127
0	100484	1715463.278437975393	1583.605694934
0	100787	1720569.885793386489	267.28606928751
0	100792	1720621.927144994593	52.041351608104
0	100824	1721959.743905476584	1337.816760482
0	101100	1724812.107188195854	280.9496563554
0	101107	1725081.220289891184	269.11310169533
0	101112	1725084.352881609819	3.132591718635
0	101121	1725322.473719306914	230.18760659858
0	101128	1725421.51002907289	99.036309765976
0	101151	1726349.777638476006	928.26760940312
0	101182	1727209.303806086031	859.52616761003
0	101193	1727757.197212235484	547.89340614945
0	101198	1727777.166018363499	19.968806128015
0	101219	1728104.337563751875	327.17154538838
0	101224	1728111.260688465399	6.923124713524
0	101235	1728487.729791273115	376.46910280772
0	101246	1728825.008839786057	337.27904851294
0	101267	1729428.471187885484	603.46234809943
0	101334	1730410.727799922355	982.25661203687
0	101368	1731704.716002415178	1293.9882024928
0	101450	1732657.225138132718	429.78195830653
0	101515	1733867.035788248425	1209.8106501157
0	101530	1734415.357640324528	548.3218520761
0	101539	1734639.08189764073	223.7242573162
0	101571	1736361.429608406044	1722.3477107653
0	102045	1740276.571085723044	446.97699346737
0	102056	1740643.815963899032	367.24487817599
0	102091	1742268.558086161324	1624.7421222623
0	102273	1746195.647092292463	1673.180096848
0	102575	1751192.990473529305	46.286239693573
0	102582	1751676.238116469087	107.56161178933
0	102589	1751799.655811623918	105.7513498747
0	102710	1753219.849412248193	74.376042451199
0	102717	1753228.041629559932	6.78400653158
0	102734	1753438.274500382935	174.25465576677
0	102741	1753487.706227334147	49.431726951212
0	102746	1753543.432894754984	55.726667420837
0	102751	1753592.652334553429	49.219439798445
0	102763	1754303.500299287543	660.28325288214
0	102831	1755177.204840408653	572.75900538919
0	102844	1755488.613269599336	311.40842919068
0	102855	1755734.859489329201	246.24621972987
0	102896	1757250.180554328024	1515.3210649988
0	102901	1757269.588310292376	19.407755964352
0	102914	1757722.794621854854	453.20631156248
0	103449	1763452.770441801192	163.05865623251
0	103619	1766289.647339317523	211.91863627954
0	103709	1768045.495673201847	198.9788727778
0	103871	1772289.158918724754	65.281643527358
0	103878	1772305.738674640993	16.579755916239
0	103887	1772436.382004798242	130.64333015725
0	103894	1772599.855190835146	163.4731860369
0	103903	1772743.739936799363	143.88474596422
0	103922	1773459.564100057473	715.82416325811
0	104199	1777485.464929289041	628.40850178571
0	104352	1779185.699441105954	339.8853223287
0	104367	1779441.637607102099	255.93816599614
0	104372	1779626.281736175385	184.64412907329
0	104389	1780276.456051308556	650.17431513317
0	104396	1780376.51450526695	100.05845395839
0	104419	1780952.076171130139	575.56166586319
0	104439	1781762.001265105255	809.92509397512
0	104539	1783602.258462191016	1576.8011388919
0	104547	1783922.103992400274	319.84553020926
0	104827	1788620.172063866614	114.47376149974
0	104849	1789247.0657940151	457.07057046143
0	105060	1793246.600146231118	619.09474909648
0	105187	1795183.934176178075	369.85410656348
0	105196	1795441.495016805928	257.56084062785
0	105211	1795929.539951598477	488.04493479255
0	105424	1799603.268537625984	863.13256532014
0	105547	1801078.376527474169	90.772448407701
0	105552	1801273.305118166845	194.92859069268
0	105581	1802268.490425357946	948.31463608605
0	105598	1802554.807146979226	286.31672162128
0	105613	1803194.188987667773	639.38184068855
0	105644	1804858.969083316899	1664.7800956491
0	105709	1805334.577571339938	194.47975592548
0	105722	1805703.650585315662	369.07301397572
0	105727	1805780.403772173107	76.753186857445
0	105732	1805791.183435345006	10.779663171899
0	105775	1807197.682981731583	1406.4995463866
0	105782	1807485.591140589783	287.9081588582
0	105805	1807816.614061275255	331.02292068547
0	105818	1808055.638361837795	239.02430056254
0	105831	1808318.653924412252	263.01556257446
0	105837	1808476.247933490195	157.59400907794
0	106329	1814914.188843271151	501.37086435999
0	106358	1815732.611420144315	818.42257687316
0	106363	1815774.745532488213	42.134112343898
0	106388	1817129.85477939625	1355.109246908
0	106397	1817200.351104326371	70.496324930121
0	106404	1817373.082892483871	172.7317881575
0	106411	1817593.322454707954	220.23956222408
0	106430	1817993.648064960052	400.3256102521
0	106461	1818538.37981523177	544.73175027172
0	106470	1818574.706930002942	36.327114771172
0	106487	1818927.870925986494	353.16399598355
0	106494	1819120.100132964384	192.22920697789
0	106501	1819186.467846630171	66.367713665787
0	106516	1819435.429273198145	248.96142656797
0	106521	1819448.671105075661	13.241831877516
0	106528	1819649.207905511677	200.53680043602
0	106541	1820082.097942542331	432.89003703065
0	106548	1820157.690678817779	75.592736275448
0	106553	1820170.281942284742	12.591263466963
0	106566	1820499.304152639664	329.02221035492
0	106589	1821607.017476473707	1107.713323834
0	106614	1821852.028019680393	181.85838715859
0	106631	1822196.03143465863	344.00341497824
0	106658	1822697.181953072902	501.15051841427
0	106665	1822814.911418475808	117.72946540291
0	106670	1822948.709807545665	133.79838906986
0	106699	1823792.871147228831	844.16133968317
0	106722	1824739.980563529429	947.1094163006
0	106850	1825691.826672530182	209.7518778957
0	106882	1826539.308021034332	847.48134850415
0	107191	1829706.121872388468	149.86675904719
0	107198	1829793.439564893233	45.962904214069
0	107213	1829942.359311140508	138.90922226703
0	107220	1830221.047375392941	278.68806425243
0	107225	1830243.211294172105	22.163918779164
0	107236	1830589.846991314511	346.63569714241
0	107245	1830724.139779782477	134.29278846797
0	107272	1831931.326104360542	1207.1863245781
0	107277	1831998.411697466681	67.085593106139
0	107288	1832754.476831256756	756.06513379008
0	107303	1832894.446313444017	139.96948218726
0	107316	1833043.23956386883	148.79325042481
0	107374	1834690.40807985161	1647.1685159828
0	107576	1837261.095446635015	490.52991626839
0	107583	1837642.1451137853	381.04966715029
0	107608	1838660.778850955659	1018.6337371704
0	107693	1839313.318490557227	10.023509316546
0	107721	1840674.986361168196	1361.667870611
0	107782	1841209.214570140448	94.810435533655
0	107797	1841763.425322844018	554.21075270357
0	107805	1841796.099632592908	32.67430974889
0	108154	1847555.901276874104	229.39486963186
0	108167	1848041.712164894194	485.81088802009
0	108233	1851575.728669796428	3534.0165049022
0	108613	1857150.960828201512	318.838397325
0	108922	1861390.453345544176	471.38938671673
0	108970	1863279.387361476501	1888.9340159323
0	108975	1863705.683964473872	426.29660299737
0	108982	1864072.340564479724	366.65660000585
0	109008	1864714.026867160035	641.68630268031
0	109470	1870154.062861292912	1317.4011049907
0	109570	1871794.697318037595	26.183633193747
0	109579	1872056.154177788213	213.80611079876
0	109586	1872241.629300746195	185.47512295798
0	109591	1872285.665472014613	44.036171268418
0	109602	1872668.864396610105	343.55598949925
0	109645	1874006.037665698816	1337.1732690887
0	109695	1874632.512274751877	88.903735338288
0	109704	1874929.970941482492	297.45866673061
0	109713	1875354.579964551406	424.60902306891
0	109718	1875436.342577978144	81.762613426738
0	109729	1875825.323611360075	388.98103338193
0	109740	1876025.895193841418	200.57158248134
0	109747	1876117.950001276073	92.054807434655
0	109752	1876251.3002761715	133.35027489543
0	109765	1876695.20614071926	443.90586454776
0	109776	1877191.168163802494	495.96202308323
0	109799	1877749.087612000789	557.91944819829
0	109814	1877980.984712625228	231.89710062444
0	109831	1878279.241706571758	298.25699394653
0	109848	1878929.280765993646	650.03905942189
0	109855	1879244.705799994335	315.42503400069
0	109865	1879544.295337088297	299.58953709396
0	110050	1882214.169859453985	914.46095146091
0	110158	1883615.438296228125	139.12213565642
0	110167	1883833.928270396077	170.18800327857
0	110184	1884455.997616993131	622.06934659705
0	110207	1884845.480406125564	389.48278913243
0	110212	1884868.592753870055	23.112347744491
0	110237	1885835.002085200177	966.40933133012
0	110248	1886006.687954898212	171.68586969803
0	110259	1886835.162984159797	828.47502926158
0	110303	1888006.660393771593	1171.4974096118
0	110515	1891247.377767624701	1610.8419051889
0	110534	1891666.711434053271	419.33366642857
0	110547	1892013.497275214671	346.7858411614
0	110560	1892361.622242132487	348.12496691782
0	110579	1892637.780434436668	276.15819230418
0	110592	1892837.351771763719	199.57133732705
0	110602	1893179.021309065073	341.66953730135
0	111000	1899468.88765313865	19.432331448088
0	111011	1899759.357165291972	184.8815066052
0	111020	1899908.415937412809	149.05877212084
0	111027	1899963.03549171619	54.619554303381
0	111048	1900336.097223667686	373.0617319515
0	111055	1900591.083375094098	254.98615142641
0	111066	1900907.928101381777	316.84472628768
0	111085	1901387.749024140649	479.82092275887
0	111098	1901568.115721567878	180.36669742723
0	111105	1901712.273722647632	144.15800107975
0	111157	1903309.344057033031	1597.0703343854
0	111210	1904221.210345785044	696.24448446608
0	111217	1904605.914715857732	384.70437007269
0	111248	1905427.549643790586	821.63492793285
0	111263	1905759.97779180385	332.42814801326
0	111272	1905883.167752785669	123.18996098182
0	111309	1907120.031392029815	1236.8636392441
0	111318	1907301.936428992428	181.90503696261
0	111329	1907409.530123496689	107.59369450426
0	111336	1907481.188899624814	71.658776128125
0	111355	1907903.940372776704	422.75147315189
0	111366	1908011.57371346465	107.63334068795
0	111387	1908360.546010227152	348.9722967625
0	111398	1908614.384852663816	253.83884243666
0	111417	1908877.474521148645	263.08966848483
0	111826	1914050.002071820583	651.02671247189
0	111837	1914388.216407000802	338.21433518022
0	111844	1914485.069283661163	96.852876660361
0	111871	1914931.206743730064	446.1374600689
0	111902	1915966.865435714819	1035.6586919848
0	111931	1916718.489242963804	751.62380724899
0	112232	1919840.717679733749	299.34193079735
0	112239	1920532.813923846336	190.76831757231
0	112253	1920751.862337632215	183.21694422197
0	112608	1925579.052023317587	324.76859415779
0	112613	1925836.034961051702	256.98293773412
0	112632	1926662.625934902586	826.59097385088
0	112764	1928900.245274882101	165.68704845875
0	112771	1929025.93346472773	125.68818984563
0	112802	1929550.421385833416	524.48792110569
0	112807	1929556.387564572378	5.966178738962
0	112814	1929604.849411489843	48.461846917465
0	112823	1930012.747874222259	407.89846273242
0	112834	1930195.637359727778	182.88948550552
0	112839	1930215.799200567626	20.161840839848
0	112856	1930595.239991110582	379.44079054296
0	112864	1930717.46685050792	122.22685939734
0	113027	1932853.456328379535	110.21916565621
0	113048	1934256.947943584074	1403.4916152045
0	113093	1935911.769111745584	1654.8211681615
0	113112	1936458.000438847951	546.23132710237
0	113127	1936579.630903710092	121.63046486214
0	113134	1936690.028117703938	110.39721399385
0	113143	1936921.789283620471	231.76116591653
0	113150	1937015.006149015043	93.216865394572
0	113169	1937309.729320297874	294.72317128283
0	113560	1942215.383530876798	1272.4582700067
0	113711	1944342.017059067037	280.95430483892
0	113727	1945140.839035140771	798.82197607373
0	113816	1946287.790657317347	345.46536121923
0	113823	1946453.568816091799	165.77815877445
0	113844	1947456.463009324207	1002.8941932324
0	113849	1947622.807112940036	166.34410361583
0	113861	1948391.015619712933	768.2085067729
0	113963	1949486.974341430664	38.541580477398
0	113970	1949719.111853733463	34.350139086242
0	113983	1950020.274012969668	288.46631016921
0	113996	1950281.769225949909	261.49521298024
0	114007	1950466.912629022673	185.14340307276
0	114025	1950923.132817047802	456.22018802513
0	114079	1951841.198375087592	713.33183282819
0	114379	1956522.859336456943	934.58694172283
0	114523	1959003.518919780684	1233.875463073
0	114540	1959438.269242186229	434.75032240554
0	114551	1959807.674419123345	369.40517693712
0	114568	1960027.131216957349	219.456797834
0	114694	1961640.962535621964	878.57601612293
0	114754	1962429.978049851375	440.73277778465
0	114761	1962520.249160273194	90.271110421819
0	114766	1962583.276898042864	63.02773776967
0	114771	1962625.353586779272	42.076688736408
0	114780	1962901.434480747274	276.080893968
0	114785	1963007.93773108439	106.50325033712
0	114794	1963174.436624085282	166.49889300089
0	114806	1963773.393802415342	598.95717833006
0	115050	1966982.338314982129	81.033049420499
0	115059	1967166.093832642387	149.69146679145
0	115077	1967801.065842896057	634.97201025367
0	115287	1970823.462386871491	409.58746381994
0	115320	1971817.596745381411	994.13435850992
0	115327	1971931.370420518476	113.77367513706
0	115342	1972407.880987746201	476.51056722773
0	115363	1972644.010270320041	236.12928257384
0	115368	1972804.150116040199	160.13984572016
0	115383	1973105.825933380662	301.67581734046
0	115391	1973277.970086784531	172.14415340387
0	115451	1974835.316215799799	1439.8506184206
0	116438	1989459.383225170393	24.963370914011
0	116474	1990610.95962159558	1123.9144604652
0	116553	1991744.307569503476	356.36449434917
0	116571	1992413.181303668394	668.87373416492
0	116735	1995224.485942512232	896.64486163734
0	116747	1995461.216187170989	236.73024465876
0	116839	1996993.44684362062	8.70889409982
0	116846	1997183.608949489481	64.144842783865
0	116865	1998022.005119840715	780.80043150534
0	116877	1998367.105692621674	345.10057278096
0	117021	2000492.198694966569	395.55037094171
0	117035	2001339.166264341145	846.96756937458
0	117728	2011002.063214212625	287.67895190593
0	117733	2011024.606461565675	22.54324735305
0	117756	2011506.023444811833	481.41698324616
0	117769	2011812.850452981686	306.82700816985
0	117788	2012055.417788113938	242.56733513225
0	117799	2012201.583550982461	146.16576286852
0	117820	2012736.86346704373	535.27991606127
0	117835	2013186.662196588318	449.79872954459
0	117852	2013686.520921193956	499.85872460564
0	117859	2013793.127671254367	106.60675006041
0	117864	2014115.816219127737	322.68854787337
0	117895	2015364.951703360048	1249.1354842323
0	117916	2015811.910460290507	446.95875693046
0	118121	2016888.805375053035	32.204556470685
0	118133	2017188.64864903655	122.39800298443
0	118291	2019734.168395064615	48.481955606968
0	118346	2020896.820387413698	314.09661719967
0	118363	2021403.608917216928	506.78852980323
0	118376	2021700.461644703364	296.85272748644
0	118381	2021797.334336973338	96.872692269974
0	118392	2022077.032241174184	279.69790420085
0	118397	2022177.914420561074	100.88217938689
0	118402	2022344.055910374796	166.14148981372
0	118407	2022357.757756884439	13.701846509643
0	118414	2022441.476224020358	83.718467135919
0	118423	2022520.151999795593	78.675775775235
0	118436	2022893.281648157206	373.12964836161
0	118458	2023844.097372016556	950.81572385935
0	118612	2025767.592748627955	307.36670719973
0	118638	2026596.707446032595	829.11469740464
0	118687	2026955.467661744471	107.20845791883
0	118692	2026956.882930910294	1.415269165823
0	118699	2027161.327503187243	204.44457227695
0	118719	2028417.127547942496	1255.8000447553
0	119078	2032618.582008894449	82.799988968961
0	119083	2032625.196126057363	6.614117162914
0	119105	2033358.378602105538	618.33681196452
0	119218	2034789.531827219864	72.134675702613
0	119229	2035155.018798218505	245.08358346684
0	119234	2035199.723322435182	44.704524216677
0	119254	2036605.209708431775	1405.4863859966
0	119507	2040468.546149258451	32.402443491864
0	119526	2040818.106753706755	242.00414189771
0	119531	2040838.315290211037	20.208536504282
0	119584	2042479.735194585021	1641.419904374
0	119591	2042574.706612829437	94.971418244416
0	119600	2042884.796766578539	310.0901537491
0	119630	2044273.170187917017	1388.3734213385
0	119872	2046543.220641735584	476.20147753586
0	119883	2046655.408559460798	112.18791772521
0	119892	2046805.435928712668	150.02736925187
0	119897	2047159.970752986856	354.53482427419
0	119912	2047469.557357435397	309.58660444854
0	119923	2047839.527135094911	369.96977765951
0	119930	2047996.449430754361	156.92229565945
0	119939	2048065.192640918148	68.743210163787
0	119958	2048839.675852125563	774.48321120742
0	120086	2050488.938978023259	427.67761513037
0	120097	2051070.223218508215	581.28424048496
0	120102	2051270.401459429597	200.17824092138
0	120107	2051504.967643891068	234.56618446147
0	120118	2051827.680309235384	322.71266534432
0	120127	2051872.935406493489	45.255097258105
0	120136	2052280.509749263628	407.57434277014
0	120141	2052351.949783248202	71.440033984574
0	120287	2055599.102600704888	799.01998760094
0	120292	2055779.758069503162	180.65546879827
0	120311	2056586.657453689539	806.89938418638
0	120874	2065996.902357306952	891.50001872189
0	120880	2066188.668926770418	191.76656946347
0	121092	2069028.336963884804	82.465727693744
0	121124	2070363.555309640947	1131.8584515356
0	121802	2079999.905168844438	333.66197889905
0	121831	2081508.797134005893	1508.8919651615
0	122085	2084611.73350309455	97.989505795821
0	122102	2085270.067406182281	658.33390308773
0	122109	2085430.841912160766	160.77450597848
0	122127	2085976.929500922015	546.08758876125
0	122404	2089241.55853852894	47.263079807523
0	122417	2089526.576304140874	285.01776561193
0	122424	2089908.958462529883	382.38215838901
0	122429	2089912.810847143564	3.852384613681
0	122448	2090350.539284827448	437.72843768388
0	122461	2090672.90367395567	322.36438912822
0	122470	2090775.553670845295	102.64999688963
0	122483	2091039.71836642948	264.16469558418
0	122502	2091761.327592568925	721.60922613945
0	123143	2100717.29699350311	443.70536614738
0	123162	2101057.138454284485	339.84146078138
0	123167	2101061.071529227374	3.933074942889
0	123176	2101652.198924652677	591.1273954253
0	123199	2102078.046757541688	425.84783288901
0	123215	2102692.589844026807	614.54308648512
0	123325	2103457.833694096778	78.818077238733
0	123366	2104493.942317327394	517.47011901677
0	123429	2106785.82613033817	2291.8838130108
0	123757	2110621.755709057028	191.06108295637
0	123762	2110734.679488330316	112.92377927329
0	123774	2111259.893394345477	525.21390601516
0	124023	2115295.320778025784	412.46626326905
0	124028	2115307.368048993408	12.047270967624
0	124037	2115525.783944819212	218.4158958258
0	124058	2116363.717499128173	837.93355430896
0	124190	2118163.757118570415	472.6294385523
0	124475	2125916.109062515065	2670.4690442344
0	124716	2128478.27841373079	64.130389775242
0	124729	2128818.858420135299	340.58000640451
0	124745	2129466.456099108069	647.59767897277
0	124959	2132579.38356328571	172.17873275772
0	124968	2132951.69938539132	372.31582210561
0	124973	2132963.250688093694	11.551302702374
0	125003	2133938.296731787897	975.0460436942
0	125196	2136494.033125186194	695.30116296942
0	125203	2136721.816660642291	227.7835354561