version 2
run Simulations-16-20191218-11:09:15-65753
attr configname Simulations
attr datetime 20191218-11:09:15
attr experiment Simulations
attr inifile omnetpp.ini
attr iterationvars "$seed=7, $0=8400"
attr iterationvarsf seed=7,8400-
attr measurement "$seed=7, $0=8400"
attr network WifiCelNetPassiveQueue
attr processid 65753
attr repetition 0
attr replication #0
attr resultdir results/Simulations/omnet
attr runnumber 16
attr seedset 7
itervar seed 7
param **.numJobs 10000
param *.OFFLOAD.deadline exponential(8400s)
param *.source.interArrivalTime exponential(120s)
param *.WIFI.serviceTime exponential(40s)
param *.CELL.serviceTime exponential(400s)
param *.OFFLOAD.switchToWi exponential(1524s)
param *.OFFLOAD.switchToCel exponential(3120s)
param *.LOCAL.serviceTime exponential(5s)
param *.REMOTE.serviceTime exponential(1s)

vector 0 WifiCelNetPassiveQueue.OFFLOAD queueLength:vector ETV
attr interpolationmode sample-hold
attr title "queue length, vector"
vector 1 WifiCelNetPassiveQueue.WIFI serviceTime:vector ETV
attr interpolationmode none
attr title "wifi Service, vector"
attr unit s
vector 2 WifiCelNetPassiveQueue.WIFI responseTime:vector ETV
attr interpolationmode none
attr title "Response Time, vector"
attr unit s
vector 3 WifiCelNetPassiveQueue.REMOTE serviceTime:vector ETV
attr interpolationmode none
attr title "wifi Service, vector"
attr unit s
vector 4 WifiCelNetPassiveQueue.REMOTE responseTime:vector ETV
attr interpolationmode none
attr title "Response Time, vector"
attr unit s
vector 5 WifiCelNetPassiveQueue.sink lifeTime:vector ETV
attr interpolationmode none
attr title "lifetime of arrived jobs, vector"
attr unit s
vector 6 WifiCelNetPassiveQueue.OFFLOAD storeCelTime:vector ETV
attr interpolationmode none
attr title "Time in Cell, vector"
attr unit s
vector 7 WifiCelNetPassiveQueue.CELL serviceTime:vector ETV
attr interpolationmode none
attr title "wifi Service, vector"
attr unit s
vector 8 WifiCelNetPassiveQueue.CELL responseTime:vector ETV
attr interpolationmode none
attr title "Response Time, vector"
attr unit s
vector 9 WifiCelNetPassiveQueue.OFFLOAD storeDeadline:vector ETV
attr interpolationmode none
attr title "deadline, vector"
attr unit s
vector 10 WifiCelNetPassiveQueue.LOCAL serviceTime:vector ETV
attr interpolationmode none
attr title "wifi Service, vector"
attr unit s
vector 11 WifiCelNetPassiveQueue.LOCAL responseTime:vector ETV
attr interpolationmode none
attr title "Response Time, vector"
attr unit s
vector 12 WifiCelNetPassiveQueue.OFFLOAD storeWifiTime:vector ETV
attr interpolationmode none
attr title "Time in Wifi, vector"
attr unit s
vector 13 WifiCelNetPassiveQueue.REMOTE queueLength:vector ETV
attr interpolationmode sample-hold
attr title "queue length, vector"
vector 14 WifiCelNetPassiveQueue.LOCAL queueLength:vector ETV
attr interpolationmode sample-hold
attr title "queue length, vector"
0	177176	3000068.370549045811	2
0	177177	3000142.179037709961	1
0	177183	3000150.447939415684	2
0	177185	3000161.241936165207	3
0	177186	3000167.583516661757	2
0	177191	3000191.626916707801	1
0	177197	3000206.682337040983	2
0	177198	3000211.040867084169	1
0	177204	3000330.007005047782	2
0	177205	3000351.097802515913	1
0	177211	3000371.487159197213	2
0	177212	3000382.906515064162	1
0	177217	3000389.026123892728	0
0	177244	3000721.358423375672	1
0	177245	3000768.754169324409	0
0	177251	3000787.493122570048	1
0	177252	3000812.253797312869	0
0	177293	3001841.516274446613	1
0	177294	3001874.861254206323	0
0	177321	3002212.488940183013	1
0	177322	3002319.479357439046	0
0	177378	3003393.778982516078	1
0	177380	3003500.593526997315	2
0	177381	3003676.018579750503	1
0	177387	3003681.649065469774	2
0	177388	3003799.181182773813	1
0	177394	3003844.296464221213	2
0	177396	3003907.186108216704	3
0	177397	3004045.084516019862	2
0	177400	3004052.568684386253	3
0	177403	3004084.485836852668	2
0	177409	3004107.023675552123	3
0	177411	3004259.311039867447	4
0	177412	3004491.17695557116	3
0	177418	3004510.941313749827	4
0	177420	3004512.272450674092	5
0	177422	3004532.556828229051	6
0	177424	3004550.609164361807	7
0	177426	3004639.3692180651	8
0	177428	3004680.309637978076	9
0	177429	3004733.873195784803	8
0	177435	3004746.731310916695	9
0	177436	3004883.680465369557	8
0	177438	3004923.549342564006	7
0	177444	3004943.702252016435	8
0	177445	3004955.541222025136	7
0	177450	3004991.575439066558	6
0	177455	3005023.314582595247	5
0	177465	3005158.156687423562	4
0	177471	3005197.312223946662	5
0	177473	3005238.83638581735	6
0	177474	3005243.939275618793	5
0	177480	3005245.6974791519	6
0	177481	3005279.296202975042	5
0	177483	3005283.607062342884	4
0	177488	3005312.76688033579	3
0	177493	3005335.702332894065	2
0	177498	3005344.146596127557	1
0	177503	3005369.40534320711	0
0	177537	3005799.801171746543	1
0	177538	3005833.280379695651	0
0	177555	3006103.000227320336	1
0	177557	3006120.084329856224	2
0	177558	3006126.893845249257	1
0	177564	3006145.922690964323	2
0	177565	3006184.848911655297	1
0	177570	3006236.416813670815	0
0	177590	3006413.513305677141	1
0	177592	3006430.486153763732	2
0	177593	3006461.604896598921	1
0	177598	3006462.374476630028	0
0	177611	3006563.562740879291	1
0	177612	3006570.51101199016	0
0	177646	3007205.169243004551	1
0	177647	3007247.305460786132	0
0	177668	3007873.564301390341	1
0	177670	3007912.010544601237	2
0	177671	3008036.676630143494	1
0	177677	3008064.449143735557	2
0	177678	3008069.245387087753	1
0	177684	3008152.465493206308	2
0	177686	3008297.404592347072	3
0	177688	3008494.368563871858	4
0	177690	3008509.500022333311	5
0	177692	3008635.397341598086	6
0	177694	3008708.186188655534	7
0	177695	3008715.157973247108	6
0	177701	3008720.934591845825	7
0	177703	3008812.366831240472	8
0	177704	3008816.182872371318	7
0	177709	3008847.839329873225	6
0	177714	3008895.798521440647	5
0	177719	3008914.668864461652	4
0	177725	3008922.423404684499	5
0	177727	3009062.008071217908	6
0	177729	3009072.447094077945	7
0	177731	3009125.246542951871	8
0	177733	3009350.277632033623	9
0	177735	3009361.235571174313	10
0	177737	3009524.916860712033	11
0	177739	3009558.743519294264	12
0	177741	3009606.55282287222	13
0	177743	3009627.291491454934	14
0	177745	3009645.165439925482	15
0	177747	3009758.764708529309	16
0	177748	3009972.522064865557	15
0	177753	3010010.815443254553	16
0	177755	3010190.166923131195	17
0	177756	3010281.451313527581	16
0	177762	3010348.32017336898	17
0	177763	3010370.710082983466	16
0	177768	3010434.329256392564	17
0	177770	3010452.834287292322	18
0	177771	3010502.253923733316	17
0	177775	3010544.459090971824	16
0	177780	3010596.330085328993	17
0	177782	3010677.823756431489	18
0	177783	3010724.509202145272	17
0	177788	3010732.314522114134	16
0	177793	3010770.330141762271	17
0	177795	3010816.26586655745	18
0	177796	3010880.108122198132	17
0	177799	3010883.248157158029	16
0	177806	3010884.989683214098	15
0	177811	3010924.656359045062	16
0	177813	3010956.106862339521	17
0	177814	3011244.886932365233	16
0	177820	3011459.769822184056	17
0	177821	3011493.215755990806	16
0	177823	3011555.751023807692	15
0	177829	3011577.453262346682	16
0	177831	3011593.790608116159	17
0	177833	3011695.34611251723	18
0	177834	3011733.201871527777	17
0	177840	3011759.612224331373	16
0	177850	3011918.098441580045	17
0	177851	3011936.352754886087	16
0	177857	3012011.440041032518	17
0	177858	3012318.579623699518	16
0	177864	3012370.857288501713	17
0	177866	3012405.018739317945	18
0	177867	3012492.201358234903	17
0	177873	3012544.627889853206	18
0	177875	3012645.811771526272	19
0	177876	3012727.926019100869	18
0	177881	3012774.490989357069	17
0	177883	3012779.206723098684	16
0	177888	3012796.870958507712	15
0	177893	3012797.906413096842	14
0	177899	3012810.74849487587	15
0	177901	3012816.392961857479	16
0	177903	3012822.770906388238	17
0	177904	3012843.044760288534	16
0	177910	3012930.892239166853	15
0	177915	3012931.971503458246	14
0	177924	3012968.406603448524	13
0	177929	3012987.86604342089	12
0	177935	3013009.914428931262	13
0	177936	3013030.46311301004	12
0	177941	3013075.551209264091	11
0	177946	3013079.213788508474	10
0	177951	3013093.698745704753	9
0	177956	3013097.325058461937	8
0	177962	3013139.104449379786	9
0	177963	3013139.603901879769	8
0	177969	3013185.436123985598	9
0	177971	3013221.807002913405	10
0	177972	3013273.459015353089	9
0	177978	3013298.756386467574	10
0	177979	3013308.312952563697	9
0	177983	3013308.624570809947	10
0	177987	3013353.147757505514	11
0	177988	3013356.730869204958	10
0	177993	3013359.693176606711	9
0	177998	3013374.515606648187	8
0	178003	3013459.911085438564	7
0	178009	3013468.017447021063	8
0	178010	3013472.809657606737	7
0	178015	3013478.730040228911	6
0	178020	3013483.683755464787	5
0	178025	3013494.170074909025	4
0	178030	3013495.42102272153	3
0	178036	3013536.703443173045	4
0	178037	3013553.643481239368	3
0	178043	3013626.300389430048	4
0	178045	3013677.718716937153	5
0	178046	3013754.590700130536	4
0	178051	3013768.250591687643	3
0	178057	3013818.917289346421	4
0	178058	3013825.859535915963	3
0	178063	3013832.050423172537	2
0	178069	3013838.288242868783	3
0	178070	3013848.151439383207	2
0	178075	3013870.584257057132	1
0	178080	3013902.030061470831	0
0	178107	3014305.560965676625	1
0	178108	3014312.631351423385	0
0	178129	3014518.305291565234	1
0	178131	3014612.838099722205	2
0	178133	3014891.146817721358	3
0	178134	3014896.4502305194	2
0	178140	3014981.888273530645	3
0	178142	3015016.942457932618	4
0	178143	3015211.806776527275	3
0	178149	3015360.980137768892	4
0	178150	3015451.289857039341	3
0	178153	3015462.231046114439	4
0	178154	3015463.418547901533	3
0	178159	3015503.710238063063	2
0	178164	3015537.016676773617	1
0	178169	3015578.212164586631	0
0	178236	3017135.733716200905	1
0	178237	3017172.857008390324	0
0	178243	3017779.022592001994	1
0	178244	3017978.429169932847	0
0	178250	3018059.749165776035	1
0	178252	3018211.64269380769	2
0	178254	3018351.484089537904	3
0	178256	3018386.592106766819	4
0	178258	3018409.42310711461	5
0	178260	3018466.319731094209	6
0	178261	3018531.536408682299	5
0	178266	3018541.148734342869	4
0	178268	3018544.887919470974	3
0	178273	3018570.814587112604	2
0	178278	3018579.522900030011	1
0	178283	3018591.565099623654	0
0	178296	3018618.325559531879	1
0	178297	3018691.733063281095	0
0	178352	3019240.057513436094	1
0	178353	3019288.345537147623	0
0	178359	3019291.908081209497	1
0	178360	3019302.572622256383	0
0	178366	3019303.317918103778	1
0	178368	3019385.843931572594	2
0	178369	3019427.459819453319	1
0	178374	3019428.958931305823	0
0	178380	3019449.203013476104	1
0	178381	3019455.139435985368	0
0	178394	3019522.425938452492	1
0	178396	3019526.111553500243	2
0	178403	3019745.133271520924	3
0	178405	3019799.836539843853	4
0	178406	3019809.88023310793	3
0	178410	3019824.241269119616	2
0	178416	3019925.568332061627	3
0	178418	3019932.214995329041	4
0	178420	3019957.754159286112	5
0	178421	3019960.830304376832	4
0	178427	3020084.290990910252	5
0	178429	3020096.948534644947	6
0	178431	3020131.293321827977	7
0	178432	3020173.054848733818	6
0	178438	3020249.656916858402	7
0	178440	3020315.881619425599	8
0	178441	3020425.722809485824	7
0	178446	3020838.55425361785	6
0	178451	3020933.655548275185	5
0	178453	3020941.335579142262	4
0	178459	3020949.488712112558	5
0	178460	3020952.526757207691	4
0	178463	3020954.129997651113	3
0	178470	3020976.223532937944	2
0	178479	3021045.772668058154	1
0	178484	3021099.761358477803	0
0	178504	3021346.008703233565	1
0	178505	3021379.279816860784	0
0	178519	3021464.504714600404	1
0	178521	3021507.017494521339	2
0	178523	3021627.43752984782	3
0	178524	3021733.712502336779	2
0	178530	3021885.38400116023	3
0	178531	3022049.133017017212	2
0	178537	3022097.040041755324	3
0	178538	3022250.936526929049	2
0	178544	3022344.505650783855	3
0	178546	3022411.993656772375	4
0	178547	3022437.918292993144	3
0	178552	3022470.528446923702	2
0	178557	3022504.523068426283	1
0	178562	3022547.692859439031	0
0	178568	3022561.082628735381	1
0	178570	3022628.785169888748	2
0	178572	3022669.063089668745	3
0	178574	3022725.775323148571	4
0	178576	3022812.610215657618	5
0	178578	3022841.115303049136	6
0	178579	3022878.361904393734	5
0	178581	3022922.685082756301	4
0	178587	3022933.172003657724	5
0	178588	3022952.409220093505	4
0	178593	3022969.041647683985	3
0	178599	3023016.451591415225	4
0	178600	3023031.038406309162	3
0	178605	3023035.689461494346	2
0	178610	3023084.72852044514	1
0	178615	3023148.253202300898	0
0	178621	3023188.274137546535	1
0	178623	3023201.117102590389	2
0	178624	3023216.469543402038	1
0	178629	3023220.177869956563	0
0	178695	3024355.673788488187	1
0	178696	3024406.975514765573	0
0	178709	3024718.10839780793	1
0	178710	3024726.382985955222	0
0	178730	3025268.067093548956	1
0	178731	3025269.443651416663	0
0	178744	3025426.211048672986	1
0	178745	3025441.151257462204	0
0	178758	3025672.932165055662	1
0	178759	3025702.284289609883	0
0	178793	3026277.731243530799	1
0	178794	3026364.389270383532	0
0	178800	3026465.28933719618	1
0	178802	3026467.132093460899	2
0	178803	3026499.983708275544	1
0	178808	3026501.721759089984	0
0	178821	3026573.891751544957	1
0	178822	3026634.469050764633	0
0	178849	3027040.567510245057	1
0	178850	3027044.450946983871	0
0	178863	3027418.441102474323	1
0	178865	3027433.818236580973	2
0	178866	3027465.004257909349	1
0	178871	3027480.866004409158	0
0	178898	3028081.781170177247	1
0	178899	3028229.125796879533	0
0	178905	3028251.035041775241	1
0	178906	3028337.157357276909	0
0	178976	3029751.844563524827	1
0	178978	3029984.947559620752	2
0	178980	3030171.884870100493	3
0	178981	3030237.793398122318	2
0	178987	3030291.352581519904	3
0	178989	3030358.185921887559	4
0	178991	3030388.913188391042	5
0	178992	3030392.593636874101	4
0	178997	3030732.295603485551	5
0	178998	3030798.704072191113	4
0	179004	3030812.638341753921	5
0	179006	3030819.412969716871	6
0	179008	3030834.368005723088	7
0	179010	3031011.346580585698	8
0	179011	3031190.354643156539	7
0	179017	3031214.274950396565	8
0	179019	3031263.623455549469	9
0	179020	3031315.097890929506	8
0	179026	3031334.267071964454	9
0	179028	3031336.948743969498	10
0	179030	3031430.898306695585	11
0	179032	3031629.348211910129	12
0	179034	3031785.949414679762	13
0	179035	3031847.418777005419	12
0	179040	3031878.516129206626	11
0	179046	3031946.863128959617	12
0	179048	3032013.895679721949	13
0	179050	3032021.762550571413	14
0	179052	3032114.788240058264	15
0	179054	3032188.068080680491	16
0	179056	3032311.010165188279	17
0	179057	3032350.141524418536	16
0	179061	3032452.25666445765	15
0	179064	3032452.915596845557	16
0	179066	3032532.959757409707	17
0	179067	3032592.93528247697	16
0	179073	3032605.953976632102	15
0	179078	3032612.183889144786	14
0	179083	3032636.014653894248	13
0	179088	3032647.228132307941	12
0	179093	3032740.692575322849	11
0	179098	3032754.293820701565	10
0	179103	3032764.811976142818	9
0	179108	3032796.856823087882	8
0	179114	3032803.884566053926	9
0	179115	3032833.888438445914	8
0	179120	3032917.723982193531	7
0	179126	3032928.182418359563	8
0	179127	3032978.585148553536	7
0	179133	3033000.952614953973	8
0	179134	3033044.845849249406	7
0	179143	3033125.492729481408	6
0	179148	3033191.624680167332	5
0	179153	3033207.464210307168	4
0	179158	3033220.94639231023	3
0	179163	3033253.604777705426	2
0	179168	3033256.365287765293	1
0	179174	3033270.297498591353	2
0	179175	3033318.304139588455	1
0	179180	3033348.548301985258	0
0	179200	3033452.818137837695	1
0	179202	3033489.063745319796	2
0	179203	3033500.485156635917	1
0	179208	3033523.698929429804	0
0	179211	3033562.466190236047	1
0	179217	3033665.862668815564	2
0	179219	3033691.207106552059	3
0	179221	3033850.891154570268	4
0	179222	3033878.825874592881	3
0	179228	3033960.7778720043	4
0	179230	3033976.682011320912	5
0	179232	3034023.960452439324	6
0	179234	3034087.671186948034	7
0	179235	3034210.82651666242	6
0	179240	3034225.606417058552	5
0	179245	3034243.459008825172	4
0	179248	3034264.849309992459	5
0	179249	3034286.294209088822	4
0	179254	3034294.59933717488	3
0	179259	3034300.038726515437	2
0	179264	3034306.05008592921	1
0	179269	3034331.644962844388	0
0	179275	3034342.574890609012	1
0	179276	3034364.923853444699	0
0	179282	3034369.688170929485	1
0	179283	3034440.105842986082	0
0	179317	3034870.677902065601	1
0	179319	3034895.912062247041	2
0	179321	3034896.183969998156	3
0	179322	3034898.602846406197	2
0	179327	3034924.864453834101	1
0	179332	3034956.868734575854	0
0	179338	3034972.749019124526	1
0	179339	3034979.446829358397	0
0	179359	3035127.652918087016	1
0	179360	3035135.235136800457	0
0	179391	3035500.580619701052	1
0	179392	3035511.663718912066	0
0	179496	3038066.396768295765	1
0	179498	3038073.084414524011	2
0	179499	3038141.275267220487	1
0	179504	3038150.719319020407	0
0	179524	3038540.162070290518	1
0	179525	3038585.295570235648	0
0	179531	3038607.176741982099	1
0	179532	3038674.60766703162	0
0	179538	3038692.104600719801	1
0	179539	3038702.758626477007	0
0	179573	3038993.047056955918	1
0	179574	3039020.821282861675	0
0	179602	3040181.971681168632	1
0	179603	3040218.799482629908	0
0	179625	3040786.244323322999	1
0	179626	3040815.02620856939	0
0	179632	3040920.028523523354	1
0	179634	3041018.128726484052	2
0	179636	3041024.910312985609	3
0	179637	3041075.644560370072	2
0	179643	3041232.280758501302	3
0	179644	3041307.002404011775	2
0	179650	3041348.629928139836	3
0	179651	3041369.546313081939	2
0	179657	3041429.269342200612	3
0	179658	3041531.102529919357	2
0	179664	3041566.024175886343	3
0	179666	3042082.88652952586	4
0	179668	3042155.325880128178	5
0	179670	3042157.046391672953	6
0	179671	3042262.258266928379	5
0	179676	3042416.2615836821	4
0	179681	3042433.390092376708	3
0	179687	3042533.65440370372	4
0	179689	3042561.895768886895	5
0	179690	3042630.049817740502	4
0	179696	3042683.981423700744	5
0	179698	3042782.102147941268	6
0	179700	3042802.249400486412	7
0	179701	3042936.963579145489	6
0	179706	3042994.586254913595	7
0	179708	3043026.884166667214	8
0	179710	3043065.286516921873	9
0	179712	3043328.354340557999	10
0	179714	3043404.681713335723	11
0	179716	3043570.517045578557	12
0	179717	3043724.113509081838	11
0	179723	3043761.93192922745	12
0	179724	3043801.55092519666	11
0	179728	3043818.157065554032	10
0	179733	3043890.859485448313	11
0	179734	3043908.45132682607	10
0	179740	3043928.150799238116	9
0	179745	3043996.865387711999	8
0	179750	3044016.688660451337	7
0	179755	3044073.524973808145	6
0	179760	3044085.510379355734	5
0	179766	3044089.757851733957	6
0	179767	3044090.642789662336	5
0	179773	3044102.196436984699	6
0	179775	3044127.946280377711	7
0	179776	3044155.763259760668	6
0	179781	3044157.579752742837	5
0	179786	3044205.454501593862	4
0	179791	3044265.513553463193	3
0	179797	3044276.389828643496	4
0	179798	3044280.184237470564	3
0	179803	3044300.787287664878	2
0	179808	3044302.98461437477	1
0	179814	3044327.157265844152	2
0	179815	3044328.545189722137	1
0	179820	3044435.430295834779	0
0	179861	3045000.631974649687	1
0	179863	3045018.108977935448	2
0	179864	3045053.75260918914	1
0	179869	3045081.051234659306	0
0	179882	3045164.549063064044	1
0	179883	3045180.001550020238	0
0	179889	3045264.028659307999	1
0	179890	3045268.549417027885	0
0	179974	3046479.535753606059	1
0	179976	3046624.490234908505	2
0	179978	3046662.379564151084	3
0	179979	3046741.828556303437	2
0	179985	3046806.532166372154	3
0	179986	3046807.542190664155	2
0	179992	3046871.681457846936	3
0	179994	3046897.077593465277	4
0	179996	3046925.691852752715	5
0	179998	3046934.23135472499	6
0	180000	3046995.189515356771	7
0	180002	3047005.635837105191	8
0	180003	3047046.943791880754	7
0	180009	3047168.347673537827	8
0	180011	3047258.937817168403	9
0	180012	3047333.436624633037	8
0	180016	3047410.906898566496	7
0	180020	3047609.867268619583	6
0	180025	3047633.792336760876	7
0	180027	3047650.597319343488	8
0	180029	3047668.595375583092	9
0	180031	3047678.206414720299	10
0	180033	3047743.288588227909	11
0	180034	3047790.299285725942	10
0	180039	3047818.705504659825	9
0	180044	3047836.800139502426	8
0	180050	3047890.009777525453	9
0	180052	3047990.739264834253	10
0	180054	3048026.86147674399	11
0	180055	3048338.079125090707	10
0	180060	3048391.781431039839	9
0	180065	3048659.843384764831	8
0	180070	3048789.107076413728	9
0	180071	3048896.389481480883	8
0	180076	3049059.14327051885	9
0	180078	3049300.087848231621	10
0	180080	3049498.393029218442	11
0	180081	3049519.143659247358	10
0	180087	3049683.041190391424	11
0	180089	3049742.84806198955	12
0	180091	3049743.253818971314	13
0	180093	3049798.375226185444	14
0	180094	3050076.385221078917	13
0	180098	3050085.465705796831	12
0	180105	3050132.822739220141	11
0	180110	3050184.179229809702	10
0	180115	3050213.93075771142	9
0	180121	3050272.918632752097	10
0	180122	3050325.805370636194	9
0	180128	3050478.545804690331	8
0	180133	3050667.286087369024	7
0	180138	3050799.146572039813	6
0	180143	3050827.885263754923	5
0	180149	3050834.639621501254	6
0	180150	3050848.105440863079	5
0	180155	3050863.705055402705	4
0	180160	3050868.084254787001	3
0	180165	3050870.161015737215	2
0	180170	3050888.288586107202	1
0	180175	3050893.700033047463	0
0	180209	3051457.430169036044	1
0	180210	3051583.334318249836	0
0	180266	3053161.074325206184	1
0	180268	3053167.815870701725	2
0	180270	3053168.44675555735	3
0	180272	3053180.029480927491	4
0	180274	3053232.67227090272	5
0	180276	3053278.171347519535	6
0	180278	3053304.386794104914	7
0	180280	3053368.898081303695	8
0	180282	3053456.263291828665	9
0	180284	3053553.725347141821	10
0	180286	3053584.181768855088	11
0	180287	3053636.383790741126	10
0	180292	3053689.274540947438	11
0	180294	3053775.65499826424	12
0	180296	3053790.170417290455	13
0	180298	3053794.939077434713	14
0	180299	3053837.364202400931	13
0	180301	3053886.015539861463	12
0	180306	3053942.461671972595	11
0	180311	3053958.668476229471	10
0	180316	3053977.530444999935	9
0	180322	3054031.480342375267	10
0	180323	3054050.147366912678	9
0	180328	3054070.764200320587	8
0	180333	3054081.592181516167	7
0	180338	3054116.909592824373	6
0	180344	3054140.208732481178	7
0	180345	3054143.507611654735	6
0	180350	3054195.875617640902	5
0	180360	3054543.156522817923	4
0	180363	3054547.150623741534	5
0	180365	3054569.517627078871	6
0	180367	3054596.711127519255	7
0	180368	3054600.573219176888	6
0	180374	3054699.427812275079	7
0	180375	3054710.783592345473	6
0	180381	3054719.304016677132	7
0	180382	3054797.68042110005	6
0	180387	3054816.330584018776	5
0	180392	3054848.250845024178	4
0	180398	3054956.939415420327	5
0	180399	3054963.541312475193	4
0	180404	3055037.757036384695	3
0	180409	3055052.467958158304	2
0	180414	3055056.543721124748	1
0	180419	3055096.503957318779	0
0	180457	3055484.912041031101	1
0	180458	3055496.350730054166	0
0	180478	3055786.803624369524	1
0	180479	3055795.627973639768	0
0	180520	3056817.905062749357	1
0	180521	3056822.378456817553	0
0	180527	3056825.593950811322	1
0	180528	3056899.839131999801	0
0	180541	3056983.937513658598	1
0	180542	3056988.72412255799	0
0	180562	3057281.261196341036	1
0	180563	3057315.252897196829	0
0	180569	3057353.328885016103	1
0	180571	3057355.484889805831	2
0	180573	3057377.639706117098	3
0	180575	3057446.440039757037	4
0	180577	3057466.187609427805	5
0	180578	3057482.466936411733	4
0	180583	3057522.22927042024	3
0	180588	3057524.304426249366	2
0	180593	3057542.208715509062	1
0	180598	3057585.771577489666	0
0	180618	3058291.179957386351	1
0	180619	3058309.647314107106	0
0	180674	3059320.432453591462	1
0	180675	3059369.442756714516	0
0	180702	3059683.06315555519	1
0	180703	3059701.010705596835	0
0	180723	3060180.282929151968	1
0	180724	3060266.603112227223	0
0	180807	3061466.528005438597	1
0	180808	3061521.578504970387	0
0	180863	3062700.434894549963	1
0	180864	3062706.969962400823	0
0	180878	3063252.865079686802	1
0	180880	3063316.904168615327	2
0	180882	3063347.957492420025	3
0	180884	3063614.853086879645	4
0	180885	3063816.279868404855	3
0	180890	3063963.985698723923	4
0	180892	3064093.44622623433	5
0	180894	3064168.052756600167	6
0	180896	3064192.646963238121	7
0	180897	3064206.965818072889	6
0	180901	3064289.504336880155	5
0	180903	3064298.948628711086	4
0	180908	3064338.869381531005	3
0	180913	3064344.883958499628	2
0	180918	3064366.041870273379	1
0	180923	3064373.465775489961	0
0	180936	3064616.95684787134	1
0	180938	3064625.199712224866	2
0	180939	3064642.148311385695	1
0	180944	3064668.092792425052	0
0	180962	3064981.039807491852	1
0	180963	3065184.191301861193	0
0	180969	3065222.214366613905	1
0	180971	3065243.33069571874	2
0	180973	3065517.417721777269	3
0	180975	3065553.549008013118	4
0	180977	3065624.223446085623	5
0	180979	3065681.339125645323	6
0	180980	3065831.623695206243	5
0	180986	3065918.102491652432	6
0	180987	3066026.331937567186	5
0	180992	3066040.965076846864	4
0	180998	3066123.345913257307	5
0	181000	3066138.389489945132	6
0	181002	3066184.688179103973	7
0	181004	3066276.054616456534	8
0	181006	3066305.874234748882	9
0	181008	3066339.86893621643	10
0	181009	3066363.5811043216	9
0	181015	3066387.684983223259	10
0	181017	3066418.105441752863	11
0	181019	3066461.895319713606	12
0	181021	3066505.718418144034	13
0	181023	3066521.643350870015	14
0	181025	3066618.702075037171	15
0	181026	3066662.280287259597	14
0	181031	3066682.815121103985	13
0	181034	3066695.398563827097	14
0	181038	3066823.139937712808	15
0	181040	3066860.613188244687	16
0	181042	3067006.024862207937	17
0	181044	3067068.128639144695	18
0	181045	3067245.465737046983	17
0	181050	3067709.832272056943	18
0	181052	3067749.798672295341	19
0	181053	3067883.554030335155	18
0	181057	3067887.580752199013	17
0	181062	3067932.585921278088	16
0	181067	3068044.641156340951	15
0	181072	3068169.337243972573	16
0	181074	3068273.957984620703	17
0	181076	3068361.947329175342	18
0	181078	3068397.998967830982	19
0	181079	3068472.46777135464	18
0	181087	3068556.37896902145	19
0	181088	3068596.763864798392	18
0	181093	3068605.051941642923	17
0	181098	3068650.838048863489	16
0	181103	3068686.250328299917	15
0	181108	3068698.245580915869	14
0	181113	3068704.727009042534	13
0	181118	3068781.163665407356	12
0	181123	3068834.927226219144	11
0	181129	3068842.937678815497	12
0	181130	3068844.455395037027	11
0	181135	3068876.925209389357	10
0	181141	3068995.869158570579	11
0	181142	3069002.844950795172	10
0	181147	3069022.703346071062	9
0	181153	3069029.665421634274	10
0	181154	3069046.82521850521	9
0	181159	3069093.191393967561	8
0	181164	3069142.384585141339	7
0	181169	3069147.446769121028	6
0	181174	3069173.841301644994	5
0	181179	3069184.565932742881	4
0	181184	3069190.168313923247	3
0	181190	3069194.111215987861	4
0	181191	3069248.616009709422	3
0	181196	3069250.558412955761	2
0	181199	3069251.036461664533	1
0	181206	3069261.266317046953	0
0	181233	3069793.849512306641	1
0	181235	3069907.089876600186	2
0	181236	3069978.901863412331	1
0	181242	3070000.090822829637	2
0	181243	3070026.398906098749	1
0	181249	3070110.825051156015	2
0	181250	3070114.060372546086	1
0	181255	3070116.432249720433	0
0	181319	3071215.345430719216	1
0	181320	3071221.380242541795	0
0	181326	3071233.557866786857	1
0	181327	3071248.051765106475	0
0	181333	3071254.005407760728	1
0	181334	3071336.975734705689	0
0	181340	3071340.070723331399	1
0	181341	3071356.330028013935	0
0	181347	3071365.910391015994	1
0	181348	3071441.654204145765	0
0	181354	3071450.09421126222	1
0	181355	3071462.777184931176	0
0	181396	3072149.625233415414	1
0	181397	3072216.190350184105	0
0	181438	3072590.879690572474	1
0	181439	3072669.107053047959	0
0	181445	3072716.133902417553	1
0	181447	3072740.200738700361	2
0	181448	3072745.017897620558	1
0	181453	3072772.651554626301	0
0	181459	3072792.15349065064	1
0	181460	3072874.455593158684	0
0	181487	3073046.927330076637	1
0	181488	3073127.160807419148	0
0	181522	3073505.642650058999	1
0	181523	3073524.66246385231	0
0	181529	3073620.215908754518	1
0	181530	3073644.437169762969	0
0	181536	3073687.157300452711	1
0	181537	3073695.092289782321	0
0	181543	3073703.078349569419	1
0	181545	3073741.444626044619	2
0	181546	3073783.51481657015	1
0	181551	3073788.377231625625	0
0	181606	3074796.580228792825	1
0	181607	3074875.58827810498	0
0	181655	3075491.315475046446	1
0	181656	3075513.07662850733	0
0	181683	3076118.988093769782	1
0	181684	3076134.961962710747	0
0	181697	3076438.692611649323	1
0	181698	3076451.727595696302	0
0	181711	3077065.996992168574	1
0	181713	3077127.216660312218	2
0	181714	3077163.725721971239	1
0	181719	3077211.745529637792	0
0	181739	3077543.892671683012	1
0	181740	3077589.967212642256	0
0	181746	3077633.400712894008	1
0	181747	3077633.633932829719	0
0	181767	3078135.98405427155	1
0	181768	3078186.698768325082	0
0	181802	3078653.655923871878	1
0	181803	3078701.386872738825	0
0	181872	3080850.141689944465	1
0	181873	3080958.592570088013	0
0	181893	3081396.58430521697	1
0	181894	3081398.427422686211	0
0	181900	3081402.564790321795	1
0	181901	3081404.265535107271	0
0	181907	3081473.497347674004	1
0	181908	3081474.352919593426	0
0	181935	3081764.952448271304	1
0	181936	3081766.426214728996	0
0	181949	3081833.746687245113	1
0	181950	3081934.681705429049	0
0	181963	3082008.645904800182	1
0	181964	3082032.674220398733	0
0	181977	3082482.204084787083	1
0	181979	3082553.116964560325	2
0	181980	3082617.193354439048	1
0	181986	3082645.205188151271	2
0	181988	3082666.40965333203	3
0	181989	3082726.12866311692	2
0	181995	3082808.514072533902	3
0	181996	3082825.164592950589	2
0	182001	3082857.196346079265	1
0	182007	3082866.050049827788	2
0	182008	3082874.765033845459	1
0	182013	3082901.431272244603	0
0	182061	3084090.755095327143	1
0	182062	3084129.450866563536	0
0	182103	3084830.841902334984	1
0	182104	3084847.331448414811	0
0	182131	3085070.598846284076	1
0	182133	3085096.98678846594	2
0	182134	3085107.413891051464	1
0	182140	3085114.430983863972	2
0	182141	3085142.980754447477	1
0	182146	3085150.878718466352	0
0	182173	3085353.977412540795	1
0	182174	3085444.824209882099	0
0	182194	3085669.379605092201	1
0	182195	3085721.399847996076	0
0	182230	3086578.771609345193	1