version 2
run Simulations-25-20191218-11:09:16-65753
attr configname Simulations
attr datetime 20191218-11:09:16
attr experiment Simulations
attr inifile omnetpp.ini
attr iterationvars "$seed=25, $0=600"
attr iterationvarsf seed=25,600-
attr measurement "$seed=25, $0=600"
attr network WifiCelNetPassiveQueue
attr processid 65753
attr repetition 0
attr replication #0
attr resultdir results/Simulations/omnet
attr runnumber 25
attr seedset 25
itervar seed 25
param **.numJobs 10000
param *.OFFLOAD.deadline exponential(600s)
param *.source.interArrivalTime exponential(120s)
param *.WIFI.serviceTime exponential(40s)
param *.CELL.serviceTime exponential(400s)
param *.OFFLOAD.switchToWi exponential(1524s)
param *.OFFLOAD.switchToCel exponential(3120s)
param *.LOCAL.serviceTime exponential(5s)
param *.REMOTE.serviceTime exponential(1s)

vector 0 WifiCelNetPassiveQueue.WIFI serviceTime:vector ETV
attr interpolationmode none
attr title "wifi Service, vector"
attr unit s
vector 1 WifiCelNetPassiveQueue.WIFI responseTime:vector ETV
attr interpolationmode none
attr title "Response Time, vector"
attr unit s
vector 2 WifiCelNetPassiveQueue.REMOTE serviceTime:vector ETV
attr interpolationmode none
attr title "wifi Service, vector"
attr unit s
vector 3 WifiCelNetPassiveQueue.REMOTE responseTime:vector ETV
attr interpolationmode none
attr title "Response Time, vector"
attr unit s
vector 4 WifiCelNetPassiveQueue.sink lifeTime:vector ETV
attr interpolationmode none
attr title "lifetime of arrived jobs, vector"
attr unit s
vector 5 WifiCelNetPassiveQueue.OFFLOAD queueLength:vector ETV
attr interpolationmode sample-hold
attr title "queue length, vector"
vector 6 WifiCelNetPassiveQueue.OFFLOAD storeCelTime:vector ETV
attr interpolationmode none
attr title "Time in Cell, vector"
attr unit s
vector 7 WifiCelNetPassiveQueue.OFFLOAD storeDeadline:vector ETV
attr interpolationmode none
attr title "deadline, vector"
attr unit s
vector 8 WifiCelNetPassiveQueue.CELL serviceTime:vector ETV
attr interpolationmode none
attr title "wifi Service, vector"
attr unit s
vector 9 WifiCelNetPassiveQueue.CELL responseTime:vector ETV
attr interpolationmode none
attr title "Response Time, vector"
attr unit s
vector 10 WifiCelNetPassiveQueue.LOCAL serviceTime:vector ETV
attr interpolationmode none
attr title "wifi Service, vector"
attr unit s
vector 11 WifiCelNetPassiveQueue.LOCAL responseTime:vector ETV
attr interpolationmode none
attr title "Response Time, vector"
attr unit s
vector 12 WifiCelNetPassiveQueue.LOCAL queueLength:vector ETV
attr interpolationmode sample-hold
attr title "queue length, vector"
vector 13 WifiCelNetPassiveQueue.OFFLOAD storeWifiTime:vector ETV
attr interpolationmode none
attr title "Time in Wifi, vector"
attr unit s
vector 14 WifiCelNetPassiveQueue.REMOTE queueLength:vector ETV
attr interpolationmode sample-hold
attr title "queue length, vector"
0	171385	3000247.984396806126	95.982420702056
0	171392	3000494.777860426868	0.721292937797
0	171399	3000566.570109352012	26.476318078211
0	171410	3000685.241586582362	81.249105506564
0	171415	3000720.327461152653	35.085874570291
0	171420	3000760.150916545419	39.823455392766
0	171429	3000941.239246524714	49.804294689914
0	171434	3000984.262661768801	43.023415244087
0	171449	3001239.754344086316	228.45453670475
0	171454	3001255.619022256693	15.864678170377
0	171459	3001285.027223237109	29.408200980416
0	171464	3001294.282043696166	9.254820459057
0	171469	3001295.8408979827	1.558854286534
0	171476	3001444.761788169201	0.533944313758
0	171483	3001512.834540969732	50.734668739781
0	171490	3001685.460267885541	37.72035656581
0	171497	3001746.313756332467	17.864463746168
0	171504	3001809.588685310461	0.707969002714
0	171511	3002170.383501481582	7.171411133015
0	171518	3002666.696654503337	8.606183835332
0	171531	3002998.129899811022	184.79034543577
0	171536	3003015.494974472632	17.36507466161
0	171543	3003085.838836246385	70.343861773753
0	171550	3003123.254542081815	37.41570583543
0	171555	3003218.420221724853	95.165679643038
0	171560	3003240.815054073387	22.394832348534
0	171567	3003258.686274645754	5.573429287258
0	171576	3003294.687778859055	32.42200340924
0	171581	3003350.033716201403	55.345937342348
0	171588	3003423.819928616138	6.825908416714
0	171595	3003438.000350860598	7.841632110516
0	171602	3003533.878403108341	14.678347105032
0	171609	3003754.682164120108	24.98140112147
0	171618	3003889.838805063572	26.34191292598
0	171623	3003908.152522163027	18.313717099455
0	171632	3004191.9098106806	157.54397533377
0	171637	3004196.731291993613	4.821481313013
0	171646	3004262.33084874202	64.06442451161
0	171651	3004299.731018771324	37.400170029304
0	171658	3004462.312794223038	133.5406643558
0	171665	3004591.070904278679	12.755781000121
0	171672	3004913.582469225275	188.17464350828
0	171679	3004982.691885932937	37.242214514824
0	171688	3005006.240044888723	22.027873576349
0	171693	3005047.904606279867	41.664561391144
0	171700	3005078.349629161627	2.244983874165
0	171707	3005265.680915924219	114.0397935675
0	171714	3005342.431405014664	7.150590024528
0	171721	3005457.067904824052	27.601795114551
0	171728	3005632.993415795402	22.046326114004
0	171737	3005698.498695532697	38.678855865801
0	171744	3005751.146007234022	52.647311701325
0	171749	3005767.233799759288	16.087792525266
0	171756	3005872.219728211762	42.649864504292
0	171763	3005948.997882763299	0.518386710904
0	171772	3006157.861199637958	115.4420297711
0	171777	3006170.160216329171	12.299016691213
0	171784	3006522.468897939886	47.868329768353
0	171791	3006603.598007193781	32.933880218403
0	171798	3006715.887624320336	10.990396066957
0	171807	3006758.157109011448	33.858155621075
0	171812	3006779.971636380241	21.814527368793
0	171819	3006870.350589541357	44.710434015122
0	171828	3007049.033924549737	157.34977451234
0	171833	3007063.572682481453	14.538757931716
0	171840	3007102.739886922404	35.581649938973
0	171847	3007130.599241893754	27.7813471312
0	171856	3007430.866516882034	36.765584169176
0	171863	3007454.057078400602	23.190561518568
0	171868	3007482.111785192876	28.054706792274
0	171875	3007509.127883995374	2.701216029551
0	171882	3007584.366345609592	6.202003153037
0	171889	3007920.348358941243	14.787621230586
0	171902	3008071.239186697926	108.70655742418
0	171907	3008174.366343365711	103.12715666779
0	171912	3008195.673157813863	21.306814448152
0	171917	3008264.233838063908	68.560680250045
0	171926	3008320.331795867247	32.22026651885
0	171931	3008329.677286366646	9.345490499399
0	171938	3008671.453327782316	90.122900146117
0	171945	3009395.846129104123	23.638311745501
0	171952	3009440.923377283693	10.185157024999
0	171961	3009605.559698196652	112.16694530854
0	171966	3009615.734036208342	10.17433801169
0	171975	3009923.635769426371	58.448863451902
0	171984	3010107.060241280044	183.42447185367
0	171991	3010175.212902559421	68.152661279377
0	172000	3010299.562551116593	124.34964855717
0	172005	3010309.926278101663	10.36372698507
0	172010	3010324.120801986182	14.194523884519
0	172015	3010362.917468035761	38.796666049579
0	172026	3010453.546307297991	75.013993774072
0	172258	3014207.192711381134	29.834792490474
0	172267	3014249.855053785004	15.034484188394
0	172272	3014304.865080555639	55.010026770635
0	172279	3014343.588003866128	33.855203260527
0	172288	3014422.075945708745	16.024701059382
0	172293	3014424.638897890663	2.562952181918
0	172304	3014791.461973789992	1.456149531905
0	172311	3014898.886026258011	16.815925950961
0	172318	3014917.495353954764	3.600191226735
0	172325	3015357.700101379504	18.126001550575
0	172336	3015389.875920255439	23.779155309517
0	172341	3015403.35233874546	13.476418490021
0	172348	3015492.53448986562	89.18215112016
0	172353	3015495.793580597842	3.259090732222
0	172360	3015526.31963789344	11.948571917968
0	172369	3015651.645563474428	39.781032034894
0	172374	3015686.933878372716	35.288314898288
0	172381	3015705.850396684698	6.912985273936
0	172390	3016108.434128789774	24.445073386097
0	172393	3016108.691294190939	0.257165401165
0	172402	3016340.655993406832	7.294329280726
0	172409	3016881.470169144084	58.643343014521
0	172420	3016920.838114916957	32.070166859857
0	172427	3017021.972839784455	101.1347248675
0	172434	3017056.584237530915	34.61139774646
0	172439	3017058.013811070426	1.429573539511
0	172444	3017079.288473161978	21.274662091552
0	172451	3017114.383893022732	15.203669009521
0	172458	3017948.836836281188	11.829293528118
0	172465	3018109.546401847511	21.993729191658
0	172472	3018751.553564784166	72.693867776059
0	172483	3018873.107979277759	104.95327888516
0	172496	3019024.030710341709	150.92273106395
0	172579	3020018.786988280215	29.888704713899
0	172584	3020058.084750234617	39.297761954402
0	172591	3020126.936031385961	68.851281151344
0	172602	3020174.427050958627	47.491019572666
0	172607	3020229.974036348243	55.546985389616
0	172616	3020306.543954458189	14.663276364225
0	172625	3020418.547297958751	112.00334350056
0	172630	3020468.120679516783	49.573381558032
0	172635	3020497.799998594563	29.67931907778
0	172646	3020610.20750792895	69.722504893863
0	172653	3020619.532630345692	9.325122416742
0	172660	3020651.795926096021	32.263295750329
0	172665	3020665.890278592206	14.094352496185
0	172672	3020726.916483186194	61.026204593988
0	172675	3020727.181518420413	0.265035234219
0	172684	3020779.757702225339	15.746015544104
0	172691	3020924.472919092154	14.733912991491
0	172698	3020964.200718784397	38.450478525774
0	172705	3021258.786436889669	20.234168479355
0	172712	3021284.06651816823	23.279705367461
0	172719	3021349.146529940604	2.733121994562
0	172726	3021514.334626432221	12.678782533971
0	172737	3021754.839208901262	209.69475940952
0	172788	3022946.503954359415	51.598251446398
0	172797	3022992.367052906576	45.863098547161
0	172808	3023093.148550172312	100.78149726574
0	172813	3023176.037109143837	82.888558971525
0	172818	3023197.309361027707	21.27225188387
0	172823	3023221.302152254559	23.992791226852
0	172830	3023317.614088347637	96.311936093078
0	172837	3023367.043575024755	49.429486677118
0	172842	3023371.872044933337	4.828469908582
0	172849	3023776.958992426383	26.219918030687
0	172858	3024092.023637472284	18.553220816038
0	172863	3024102.069563243609	10.045925771325
0	172870	3024360.320470195557	9.114231814561
0	172877	3024430.045843551523	54.117400208211
0	172884	3024676.486099769363	39.583326439542
0	172891	3024703.036089967949	9.342366436669
0	172898	3024731.464249778397	13.534373984679
0	172907	3024879.57342356972	51.291240209598
0	172912	3024887.214164888111	7.640741318391
0	172919	3025281.759938275744	90.715924340693
0	172926	3025383.49802232093	82.201279708713
0	172933	3025834.58446120183	12.799835080463
0	172942	3025990.676252339145	70.657105926011
0	172947	3026007.34014148103	16.663889141885
0	172954	3026083.042143628768	10.597606747045
0	172963	3026345.139329507652	20.161138669063
0	172968	3026377.108997480861	31.969667973209
0	172975	3026477.73748687274	28.684039349833
0	172982	3026530.064118785302	46.827373644684
0	172991	3026701.217718366399	15.659578668275
0	172996	3026745.756703676555	44.538985310156
0	173003	3026922.866941554305	21.604163217027
0	173010	3027255.966423331245	17.502718982372
0	173017	3027322.598739548504	6.701035705966
0	173024	3027363.767898335519	10.944405096877
0	173035	3027613.335518636123	65.887679471872
0	173042	3027653.273615584149	39.938096948026
0	173049	3027681.644081447969	28.37046586382
0	173054	3027685.093145287871	3.449063839902
0	173059	3027759.28002149551	74.186876207639
0	173066	3028022.678218596472	65.730151278438
0	173073	3028233.105175736567	39.275659647778
0	173084	3028275.266178172473	40.570563534743
0	173089	3028295.96557850277	20.699400330297
0	173094	3028335.223890212072	39.258311709302
0	173103	3028507.182468492052	12.084027312204
0	173112	3028714.415970545487	42.124692774409
0	173117	3028738.610491560927	24.19452101544
0	173124	3029103.201980900902	197.70660768504
0	173131	3029174.51934473876	2.775058390356
0	173138	3029282.836904937769	102.26975452022
0	173145	3029542.330107874226	5.637802183549
0	173152	3029839.557993649664	65.401573204457
0	173159	3029929.932998949231	32.543297824264
0	173166	3029957.358445268566	9.697027232383
0	173175	3030057.784238339985	73.94331454737
0	173180	3030101.499286160058	43.715047820073
0	173187	3030316.186549950789	55.586123077593
0	173200	3030492.846941744872	173.32721857138
0	173205	3030510.951027080314	18.104085335442
0	173220	3030662.329745339846	151.37871825953
0	173225	3030674.799817049001	12.470071709155
0	173230	3030691.253326989195	16.453509940194
0	173235	3030743.337489775435	52.08416278624
0	173240	3030750.673863099852	7.336373324417
0	173245	3030758.234358882476	7.560495782624
0	173250	3030779.796239310139	21.561880427663
0	173257	3030912.60038337797	58.428647999056
0	173266	3031026.435894915424	29.012363187881
0	173271	3031089.381126893307	62.945231977883
0	173280	3031193.89411443295	14.530891587564
0	173287	3031208.568848616519	14.674734183569
0	173292	3031249.157780181925	40.588931565406
0	173301	3031323.574144062185	35.450831914915
0	173306	3031359.492701386635	35.91855732445
0	173313	3031455.689722376677	0.944589025417
0	173320	3031608.167615170015	1.437545978807
0	173327	3031667.746973238175	23.431290200018
0	173334	3031801.818140119299	31.484563662186
0	173343	3031904.867531599737	73.82448763823
0	173348	3031930.67584971006	25.808318110323
0	173359	3032099.726213711951	17.759561465469
0	173364	3032123.597505881389	23.871292169438
0	173369	3032157.953603700626	34.356097819237
0	173376	3032840.99520116339	10.448099893653
0	173383	3033117.349738725245	16.083963309216
0	173390	3033193.556061122744	22.77104986092
0	173429	3033960.215560378686	4.762090816704
0	173436	3034010.324106737676	50.10854635899
0	173442	3034060.546599104514	50.222492366838
0	173447	3034117.978002135993	57.431403031479
0	173452	3034134.785278078036	16.807275942043
0	173459	3034171.2854042639	36.500126185864
0	173466	3034188.833927965385	17.548523701485
0	173471	3034223.723188116378	34.889260150993
0	173474	3034223.7820289618	0.058840845422
0	173481	3034245.898748235376	22.116719273576
0	173492	3034366.353174394783	40.400083969253
0	173505	3034713.727417105074	242.55792064779
0	173510	3034720.476141254943	6.748724149869
0	173515	3034729.743010072413	9.26686881747
0	173522	3034734.343756020828	4.600745948415
0	173527	3034739.838007099028	5.4942510782
0	173534	3035516.792239148636	6.396455434322
0	173543	3035817.156310355839	161.80487232849
0	173548	3035886.157265163939	69.0009548081
0	173555	3035965.901376043369	1.979361231373
0	173562	3036002.221754796972	7.722190145563
0	173569	3036031.103784308991	7.349769647219
0	173576	3036103.001780466078	11.325913293264
0	173583	3036258.127395165383	53.770055132878
0	173590	3036344.459493391284	7.077566446255
0	173599	3036544.67405556804	80.9002029067
0	173604	3036564.658428769911	19.984373201871
0	173613	3036829.055225797158	118.97236941956
0	173620	3036926.682367952235	97.627142155077
0	173625	3036997.264639994664	70.582272042429
0	173632	3037191.165931053802	10.351649231358
0	173639	3037410.883777173087	29.521236532849
0	173648	3037484.700648842117	70.470759733882
0	173655	3037513.81097979839	29.110330956273
0	173660	3037548.971936409661	35.160956611271
0	173669	3037631.662466856484	51.882189240705
0	173674	3037682.211703912706	50.549237056222
0	173687	3037989.004241607727	259.96740585864
0	173752	3039041.396800068897	25.871362682899
0	173757	3039061.815023650313	20.418223581416
0	173762	3039068.045276219214	6.230252568901
0	173769	3039155.215023654454	10.982165578924
0	173780	3039287.369341282351	26.18806528581
0	173787	3039328.731664043744	38.979916384229
0	173794	3039544.428771322437	30.013100076866
0	173803	3039748.429898110695	140.98767929826
0	173808	3039759.42290121482	10.993003104125
0	173817	3039803.551973752179	4.918516967155
0	173822	3039816.485422502384	12.933448750205
0	173829	3039946.54441143549	55.434332378426
0	173836	3040129.393431517264	26.765313688495
0	173843	3040144.299233341539	13.812406338233
0	173850	3040244.044984510096	49.820364081152
0	173857	3040720.066841922215	25.985040025736
0	173864	3040814.711549837802	9.672619690037
0	173871	3040885.187411590012	24.303843446286
0	173882	3041059.7018378649	106.64563947901
0	173887	3041104.988423206992	45.286585342092
0	173890	3041105.506399802697	0.517976595705
0	173901	3041202.502659298137	32.247109159559
0	173912	3041447.845523521968	245.34286422383
0	173917	3041478.233382680007	30.387859158039
0	173924	3041522.385490830868	44.152108150861
0	173929	3041608.504989570028	86.11949873916
0	173934	3041623.331247251673	14.826257681645
0	173943	3041660.433673708656	17.990438115513
0	173948	3041677.569102100557	17.135428391901
0	173955	3041711.26168202986	0.558479783611
0	173962	3041896.19340535329	36.352151143956
0	173971	3041992.952379721235	48.025545960039
0	173976	3042000.934480273868	7.982100552633
0	173985	3042394.756163358789	156.71884307743
0	173990	3042437.714824052369	42.95866069358
0	173999	3042565.980283393524	98.540546318017
0	174006	3042671.070401549477	105.09011815595
0	174011	3042677.163349925653	6.092948376176
0	174022	3042770.198471230999	62.939153695226
0	174029	3042855.496511189418	85.298039958419
0	174034	3042875.618242002146	20.121730812728
0	174039	3042895.249258321596	19.63101631945
0	174046	3043139.663188602005	42.241823878015
0	174053	3043411.535032488348	23.021585007907
0	174060	3043496.444318669918	2.308362525048
0	174067	3043508.414309808681	8.699982750115
0	174074	3043557.793424978215	21.826569749286
0	174081	3043674.324095610606	64.426867453367
0	174090	3043888.688199998258	47.927449042695
0	174095	3043898.900685680534	10.212485682276
0	174104	3044228.961393274925	14.37972541475
0	174113	3044271.884527806736	42.923134531811
0	174118	3044292.888444110659	21.003916303923
0	174125	3044400.904324639739	108.01588052908
0	174130	3044460.489002688918	59.584678049179
0	174137	3044509.609390161982	20.802481042865
0	174144	3044679.408158266426	34.935309345754
0	174157	3044962.690068840357	147.2735159142
0	174162	3045034.317815985345	71.627747144988
0	174167	3045039.706855706566	5.389039721221
0	174172	3045045.416214742729	5.709359036163
0	174179	3045190.70385936935	62.325119534901
0	174234	3046747.234301277453	15.620202298116
0	174248	3046878.046583840022	130.81228256257
0	174253	3046880.110532101905	2.063948261883
0	174262	3047033.997340586169	153.88680848426
0	174267	3047080.49449845533	46.497157869161
0	174272	3047120.256114610139	39.761616154809
0	174279	3047155.354547038618	35.098432428479
0	174284	3047266.575965041143	111.22141800252
0	174291	3047398.246857170981	105.19761848839
0	174300	3047730.462469593424	4.260594324599
0	174305	3047786.25525537518	55.792785781756
0	174314	3047951.6446829242	109.24123982059
0	174319	3047953.79781242289	2.15312949869
0	174326	3047991.341607009549	7.16191416031
0	174333	3048241.920245938821	21.293047239684
0	174340	3048539.302308279543	117.77071391681
0	174347	3048650.592601408307	68.257510859807
0	174358	3048944.96379406138	47.138301167146
0	174365	3048961.181127914253	16.217333852873
0	174370	3048977.401063944927	16.219936030674
0	174375	3049019.925003588141	42.523939643214
0	174382	3049048.373606809481	6.138720633779
0	174391	3049408.075341000832	12.34318191065
0	174398	3049647.152325510211	18.68396923435
0	174405	3050101.93881608386	17.483381224893
0	174412	3050226.608187346705	60.076961561401
0	174419	3050348.748314377304	86.911361626428
0	174426	3050397.941870597755	47.951417960833
0	174433	3050763.316473062806	52.368697113912
0	174444	3051078.427908548067	79.875008922616
0	174548	3053630.563388178818	31.948649399183
0	174553	3053654.910616900365	24.347228721547
0	174558	3053661.58116604137	6.670549141005
0	174561	3053661.60158036445	0.02041432308
0	174568	3053671.46389354119	9.86231317674
0	174575	3053707.510210222748	1.37928367662
0	174582	3053809.913113473735	0.283356847974
0	174593	3053988.297388562067	20.092783326427
0	174600	3054066.534228470232	2.760448761039
0	174607	3054093.024824292052	19.074438116233
0	174614	3054340.039910052256	43.921494398127
0	174621	3054367.205999158194	5.895513394836
0	174628	3054422.76978211999	38.811407709176
0	174639	3054685.211807468956	186.71206196327
0	174646	3054713.619999352127	28.408191883171
0	174651	3054727.985905321147	14.36590596902
0	174656	3054777.992432142882	50.006526821735
0	174663	3054944.460415182304	4.832267299158
0	174670	3055049.543923436935	21.954620504136
0	174677	3055127.245459116979	28.426500141656
0	174684	3055548.00106195328	26.232040864261
0	174691	3055585.587248836036	15.855779227776
0	174698	3055889.751009106888	21.978137814003
0	174707	3056030.130200707709	61.904427374108
0	174712	3056036.956976699556	6.826775991847
0	174719	3056215.563539354502	19.449599611581
0	174726	3056281.899128506226	8.325391854043
0	174735	3056363.941710015084	18.112586861681
0	174740	3056373.231633336874	9.28992332179
0	174747	3056930.248567211812	99.075863288436
0	174754	3056984.314852847622	13.605460502214
0	174761	3057361.096447572681	18.692692735333
0	174768	3057436.37686319214	22.973123813656
0	174775	3057489.617068812324	35.950782309323
0	174782	3057552.245148426277	36.431977503148
0	174791	3057771.529645107473	50.758502065098
0	174798	3057810.334832686287	38.805187578814
0	174807	3057883.186865219423	72.852032533136
0	174812	3057991.447566284125	108.2607010647
0	174817	3057995.306480875098	3.858914590973
0	174824	3058038.655479798017	43.11727207345
0	174831	3058082.010823540922	3.1715981691
0	174840	3058168.622606797	72.270679572116
0	174845	3058222.652088624599	54.029481827599
0	174852	3058257.114141393215	26.745196187141
0	174859	3058338.446631357664	7.709065067007
0	174866	3058501.74534901575	40.34874871744
0	174873	3058668.04959913298	83.029290797201
0	174882	3058926.998971270036	31.156289115162
0	174887	3058936.858665449774	9.859694179738
0	174894	3058987.444076666543	25.930460431986
0	174901	3059365.720358020829	29.211293502256
0	174910	3059547.088188932108	13.408263033256
0	174917	3059607.82563521832	60.737446286212
0	174922	3059633.87629527136	26.05066005304
0	174929	3059713.221610201653	1.142709001386
0	174936	3060105.028817699396	1.023646247302
0	174943	3060328.960288105877	105.60070422098
0	175155	3065041.530861263419	65.412890813478
0	175160	3065046.410137599232	4.879276335813
0	175169	3065129.281342637248	82.871205038016
0	175178	3065174.061938021226	44.780595383978
0	175183	3065187.183554104079	13.121616082853
0	175188	3065219.573228794239	32.38967469016
0	175197	3065374.972078260732	155.39884946649
0	175231	3066075.287198467807	36.476826082105
0	175238	3066173.743420944722	42.414488751328
0	175245	3066426.915204155872	37.849463458972
0	175252	3066465.858462540867	7.176072031828
0	175263	3066506.852542342136	11.984596281654
0	175270	3066546.177666095926	16.320890061463
0	175277	3066593.976031253729	31.179496920627
0	175284	3066619.150209767716	22.875837701811
0	175293	3066726.6479894833	89.751784302982
0	175300	3066749.306504588417	22.658515105117
0	175305	3066758.19555496228	8.889050373863
0	175338	3067579.138519816487	16.738704914876
0	175343	3067591.947000260653	12.808480444166
0	175354	3067850.407489748058	43.671076154237
0	175768	3077396.019403034064	16.625559892199
0	175775	3077532.915598346048	18.913263053375
0	175782	3077595.203147719567	13.915151316247
0	175789	3077678.796198016118	29.800623252044
0	175796	3077744.552802487834	51.728572048944
0	175803	3077802.660356465096	28.040578876419
0	175814	3077893.628739327554	34.518918306082
0	175821	3077930.537221018237	16.174054330259
0	175828	3078079.022472620491	14.473755260572
0	175835	3078227.113694964127	51.531489000135
0	175842	3078281.252593429964	45.286825183795
0	175849	3078452.607529501795	32.352627477709
0	175867	3079046.887960542028	50.761599182467
0	175872	3079050.438267479615	3.550306937587
0	175879	3079158.113348678381	21.843520899395
0	175886	3079254.599047105667	4.435798279893
0	175897	3079502.881520398189	61.783003870841
0	175902	3079559.541856587697	56.660336189508
0	175907	3079568.144560879552	8.602704291855
0	175918	3079724.097254582228	85.322635263725
0	175925	3079834.020886767826	109.9236321856
0	176085	3082435.182322771245	35.941393272717
0	176094	3082486.912483467749	51.730160696504
0	176099	3082529.233846409856	42.321362942107
0	176104	3082541.801103775902	12.567257366046
0	176112	3082627.077967723949	85.276863948047
0	176246	3084502.825801210822	58.174559555898
0	176253	3084569.190063108315	66.364261897493
0	176258	3084594.767538128106	25.577475019791
0	176263	3084604.235197910386	9.46765978228
0	176270	3084645.556277049717	41.321079139331
0	176279	3084701.838197395446	56.281920345729
0	176286	3084750.361096208949	48.522898813503
0	176291	3084754.344482184955	3.983385976006
0	176298	3084918.856834352238	66.538074967265
0	176305	3084941.096028322806	11.985518650333
0	176312	3085000.472457765632	2.21685748415
0	176319	3085117.948162273253	28.550273499495
0	176326	3085166.384001213893	20.188778637599
0	176367	3086225.849783123358	7.723372711388
0	176372	3086234.476604366549	8.626821243191
0	176379	3086418.983024931772	0.535394641182
0	176386	3086447.745751899098	12.447995012547
0	176401	3087037.88656281061	89.282418748201
0	176408	3087053.512935917506	15.626373106896
0	176413	3087099.776913847152	46.263977929646
0	176416	3087103.32283348533	3.545919638178
0	176425	3087177.830928586118	1.916463700839
0	176432	3087233.657242274108	35.801544867401
0	176441	3087597.171953168138	30.466913636064
0	176446	3087619.267574479296	22.095621311158
0	176453	3087669.724609335728	11.915730442056
0	176460	3087813.594370652915	105.22961235769
0	176467	3087836.470015946357	16.741064856914
0	176500	3088721.006218017871	93.442597049714
0	176509	3088821.797872785059	100.79165476719
0	176522	3088908.011616940824	58.13039075367
0	176527	3088959.716099712356	51.704482771532
0	176532	3088988.454145446751	28.738045734395
0	176539	3089049.46601743328	61.011871986529
0	176546	3089069.723637936038	20.257620502758
0	176551	3089070.057891437902	0.334253501864
0	176558	3089081.813957112242	3.075267441099
0	176565	3089214.900250469182	5.509174956141
0	176572	3089491.793494672554	19.755495331389
0	176579	3089522.127391067163	11.222514024398
0	176587	3089714.842185918662	51.573239026367
0	176606	3090057.089248531575	78.763949803181
0	176613	3090121.365837363597	64.276588832022
0	176620	3090215.979096217549	94.613258853952
0	176625	3090286.105682978064	70.126586760515
0	176632	3090405.033419403416	118.92773642535
0	176639	3090409.480396330266	4.44697692685
0	176646	3090508.771345831087	99.290949500821
0	176651	3090518.598934982321	9.827589151234
0	176658	3090691.516313957911	2.762456044622
0	176667	3090870.05278782054	65.297761725764
0	176672	3090943.713773347311	73.660985526771
0	176679	3091124.586317297802	1.787555240152
0	176688	3091239.046085183531	78.863481525571
0	176693	3091256.85987350439	17.813788320859
0	176700	3091319.032211875984	32.143176716947
0	176707	3091409.969708531636	26.974364181229
0	176714	3091593.164339675402	41.046295742917
0	176721	3091688.248296156448	1.33770799788
0	176728	3091712.679405790543	8.74017724712
0	176827	3093327.268254377255	66.28478874116
0	176834	3093358.480144112475	11.199277721873
0	176843	3093447.750797334628	65.864710504048
0	176850	3093509.204385476832	61.453588142204
0	176855	3093518.733595845218	9.529210368386
0	176866	3093759.818239648513	53.699436350868
0	176877	3093863.815981842571	64.833230632215
0	176884	3093897.51123270674	33.695250864169
0	176889	3093923.801393102935	26.290160396195
0	176894	3093967.106580743519	43.305187640584
0	176910	3094430.602546157746	31.666287889814
0	176922	3094583.576329889531	152.97378373179
0	176957	3095496.424837155612	36.734082984797
0	176967	3095582.866699217454	86.441862061842
0	176974	3095652.965646962742	70.098947745288
0	176979	3095659.803004986243	6.837358023501
0	176984	3095676.216496134475	16.413491148232
0	176989	3095680.376665454197	4.160169319722
0	176998	3095950.309187540445	93.675288181003
0	177003	3095966.82957683882	16.520389298375
0	177010	3096020.05251309323	41.910993123525
0	177017	3096096.378122495422	14.554115170285
0	177024	3096327.064581021849	52.746936708653
0	177031	3096399.926253210315	9.44007005207
0	177040	3096521.480387881618	110.48698381665
0	177045	3096523.047837123425	1.567449241807
0	177052	3096617.695826608042	0.54397020332
0	177059	3096901.330616022673	18.475144636712
0	177070	3097244.361248016309	24.332589147062
0	177075	3097247.52950911878	3.168261102471
0	177080	3097255.916753533054	8.387244414274
0	177089	3097569.628049665842	134.47779969463
0	177096	3097618.16842654229	48.540376876448
0	177101	3097649.547711930945	31.379285388655
0	177108	3097726.116037218137	22.162279694593
0	177115	3097836.018115103952	6.400458493394
0	177122	3098018.870489884561	33.640857905672
0	177129	3098061.640088930022	4.422039469974
0	177136	3098248.882596988124	6.716697754474
0	177145	3099001.447285808662	168.09084813512
0	177150	3099062.598399315226	61.151113506564
0	177157	3099403.039028127382	2.080766304065
0	177164	3099504.529097094001	46.220845964598
0	177171	3099569.682996574743	16.049329777044
0	177180	3099823.664484234093	155.73463176416
0	177185	3099832.574451172833	8.90996693874
0	177192	3099974.465763056596	33.584373145856
0	177199	3100052.395673930084	11.625457152357
0	177206	3100128.626819370756	43.188299760888
0	177221	3100249.465222840171	51.410575669661
0	177228	3100302.560136054121	53.09491321395
0	177233	3100331.730597997659	29.170461943538
0	177240	3100365.288594068008	33.557996070349
0	177245	3100377.730786389456	12.442192321448
0	177250	3100404.737030803482	27.006244414026
0	177255	3100421.156598397957	16.419567594475
0	177262	3100644.381169981904	9.793805848236
0	177269	3100713.918274393156	42.014250930363
0	177276	3100792.351416162238	10.474892197691
0	177289	3100979.815332340045	115.86675626667
0	177294	3100992.458226990648	12.642894650603
0	177299	3100995.99497740031	3.536750409662
0	177304	3100998.073347901441	2.078370501131
0	177313	3101206.800378531614	32.007123497868
0	177320	3101229.535411858403	22.735033326789