version 2
run Simulations-70-20191218-11:09:25-65753
attr configname Simulations
attr datetime 20191218-11:09:25
attr experiment Simulations
attr inifile omnetpp.ini
attr iterationvars "$seed=65, $0=10400"
attr iterationvarsf seed=65,10400-
attr measurement "$seed=65, $0=10400"
attr network WifiCelNetPassiveQueue
attr processid 65753
attr repetition 0
attr replication #0
attr resultdir results/Simulations/omnet
attr runnumber 70
attr seedset 65
itervar seed 65
param **.numJobs 10000
param *.OFFLOAD.deadline exponential(10400s)
param *.source.interArrivalTime exponential(120s)
param *.WIFI.serviceTime exponential(40s)
param *.CELL.serviceTime exponential(400s)
param *.OFFLOAD.switchToWi exponential(1524s)
param *.OFFLOAD.switchToCel exponential(3120s)
param *.LOCAL.serviceTime exponential(5s)
param *.REMOTE.serviceTime exponential(1s)

vector 0 WifiCelNetPassiveQueue.WIFI serviceTime:vector ETV
attr interpolationmode none
attr title "wifi Service, vector"
attr unit s
vector 1 WifiCelNetPassiveQueue.WIFI responseTime:vector ETV
attr interpolationmode none
attr title "Response Time, vector"
attr unit s
vector 2 WifiCelNetPassiveQueue.OFFLOAD queueLength:vector ETV
attr interpolationmode sample-hold
attr title "queue length, vector"
vector 3 WifiCelNetPassiveQueue.REMOTE serviceTime:vector ETV
attr interpolationmode none
attr title "wifi Service, vector"
attr unit s
vector 4 WifiCelNetPassiveQueue.REMOTE responseTime:vector ETV
attr interpolationmode none
attr title "Response Time, vector"
attr unit s
vector 5 WifiCelNetPassiveQueue.sink lifeTime:vector ETV
attr interpolationmode none
attr title "lifetime of arrived jobs, vector"
attr unit s
vector 6 WifiCelNetPassiveQueue.OFFLOAD storeCelTime:vector ETV
attr interpolationmode none
attr title "Time in Cell, vector"
attr unit s
vector 7 WifiCelNetPassiveQueue.OFFLOAD storeWifiTime:vector ETV
attr interpolationmode none
attr title "Time in Wifi, vector"
attr unit s
vector 8 WifiCelNetPassiveQueue.OFFLOAD storeDeadline:vector ETV
attr interpolationmode none
attr title "deadline, vector"
attr unit s
vector 9 WifiCelNetPassiveQueue.CELL serviceTime:vector ETV
attr interpolationmode none
attr title "wifi Service, vector"
attr unit s
vector 10 WifiCelNetPassiveQueue.CELL responseTime:vector ETV
attr interpolationmode none
attr title "Response Time, vector"
attr unit s
vector 11 WifiCelNetPassiveQueue.LOCAL serviceTime:vector ETV
attr interpolationmode none
attr title "wifi Service, vector"
attr unit s
vector 12 WifiCelNetPassiveQueue.LOCAL responseTime:vector ETV
attr interpolationmode none
attr title "Response Time, vector"
attr unit s
vector 13 WifiCelNetPassiveQueue.REMOTE queueLength:vector ETV
attr interpolationmode sample-hold
attr title "queue length, vector"
vector 14 WifiCelNetPassiveQueue.LOCAL queueLength:vector ETV
attr interpolationmode sample-hold
attr title "queue length, vector"
0	174958	3000020.571775603679	64.237894073931
0	174963	3000067.60890650449	47.037130900811
0	174968	3000070.729133564953	3.120227060463
0	174973	3000076.754576633696	6.025443068743
0	174981	3000257.91386141543	79.722557756916
0	174989	3000408.570318543737	5.351409026893
0	174996	3000689.710209472087	73.569939750225
0	175003	3000744.406660087905	16.988849644004
0	175010	3000755.576553262665	4.102206328008
0	175017	3000840.328863365554	32.823082730109
0	175024	3000891.927395788752	20.264002329555
0	175037	3001137.850609115345	91.024822110357
0	175042	3001165.025526213421	27.174917098076
0	175047	3001175.715754468749	10.690228255328
0	175056	3001285.047092732553	109.3313382638
0	175061	3001287.375367601269	2.328274868716
0	175067	3001356.612453630847	69.237086029578
0	175151	3004155.870562471896	164.87504119747
0	175156	3004172.140120620344	16.269558148448
0	175161	3004217.387195319747	45.247074699403
0	175166	3004262.386470293541	44.999274973794
0	175171	3004291.242232906788	28.855762613247
0	175176	3004351.548175255158	60.30594234837
0	175181	3004375.224328392925	23.676153137767
0	175186	3004444.1796429287	68.955314535775
0	175195	3004525.305368604224	81.125725675524
0	175200	3004554.762080754549	29.456712150325
0	175205	3004568.405653258945	13.643572504396
0	175211	3004583.624802327231	15.219149068286
0	175252	3005684.601905525106	35.774952451738
0	175265	3005871.842973715707	23.894992534525
0	175270	3005949.713911414727	77.87093769902
0	175277	3006182.355005856471	40.372556261837
0	175284	3006404.268603442386	21.434795028619
0	175291	3006619.041782259643	5.544234407143
0	175298	3006695.129762949217	17.055668087942
0	175305	3006839.194564040671	45.920666699116
0	175312	3006877.53044627839	8.641930352912
0	175319	3006989.491600427517	40.779779919508
0	175326	3007054.20607522804	49.6666912436
0	175337	3007153.862564630876	95.68804807876
0	175342	3007197.938726889652	44.076162258776
0	175347	3007200.108933845795	2.170206956143
0	175354	3007365.910899735451	3.518911125125
0	175363	3007484.960814897521	1.66961635801
0	175368	3007493.206219895848	8.245404998327
0	175375	3007696.686336127964	39.90058111661
0	175388	3007979.182952495828	84.934875011102
0	175393	3008032.850029122025	53.667076626197
0	175398	3008051.113741862936	18.263712740911
0	175403	3008096.33737561737	45.223633754434
0	175410	3008197.259506836842	29.594931459004
0	175419	3008340.980382959541	53.321922091285
0	175424	3008348.11523598719	7.134853027649
0	175433	3008566.068793271026	9.899365569398
0	175440	3008666.254833693674	100.18604042265
0	175445	3008668.94844326812	2.693609574446
0	175454	3008957.454072540823	33.284464562804
0	175459	3008965.481357066985	8.027284526162
0	175470	3009201.804916282845	42.443144609964
0	175475	3009217.392046569	15.587130286155
0	175480	3009233.727151962276	16.335105393276
0	175489	3009801.190043708261	47.646859215383
0	175500	3009847.65195489653	46.461911188269
0	175505	3009920.054818234082	72.402863337552
0	175512	3009937.46770071425	17.412882480168
0	175517	3009954.976228148066	17.508527433816
0	175522	3010009.279768154899	54.303540006833
0	175529	3010052.727572230496	1.135033131569
0	175538	3010596.365462520621	122.95378831655
0	175543	3010659.608964094702	63.243501574081
0	175550	3011145.760463986391	7.867326858543
0	175557	3011160.858583138527	10.451849292202
0	175564	3011236.349436492058	54.070932440177
0	175571	3011282.039348733801	38.885156520131
0	175578	3011475.474418587333	84.276237175866
0	175585	3011741.391069831707	13.756186515123
0	175592	3012173.863264842736	9.836617748809
0	175603	3012531.713284444027	18.669971280004
0	175608	3012593.271051450211	61.557767006184
0	175615	3012648.798690985234	55.527639535023
0	175620	3012674.510545440711	25.711854455477
0	175690	3014601.281696809716	12.803283735816
0	175695	3014648.224266565537	46.942569755821
0	175706	3014733.237030887379	85.012764321842
0	175711	3014764.614166452703	31.377135565324
0	175716	3014765.581944347559	0.967777894856
0	175721	3014799.357310289236	33.775365941677
0	175730	3014963.100013172908	163.74270288367
0	175735	3014979.678042109796	16.578028936888
0	175740	3015035.151882728736	55.47384061894
0	175745	3015038.465996202148	3.314113473412
0	175750	3015071.325387989769	32.859391787621
0	175757	3015171.558040550211	100.23265256044
0	175859	3018209.519476274583	75.584986880564
0	175864	3018217.302214341186	7.782738066603
0	175869	3018233.283887936393	15.981673595207
0	175875	3018267.076132127462	33.792244191069
0	175880	3018298.270465510304	31.194333382842
0	175887	3018323.232961548208	24.962496037904
0	175892	3018396.838121484892	73.605159936684
0	175897	3018428.532972438903	31.694850954011
0	175902	3018435.015813359502	6.482840920599
0	175909	3018477.199819634171	42.184006274669
0	175914	3018482.671648382369	5.471828748198
0	175919	3018490.696519292677	8.024870910308
0	175924	3018571.109709604728	80.413190312051
0	175931	3018681.651843398481	110.54213379375
0	175936	3018684.547500103016	2.895656704535
0	175943	3018721.323422707276	36.77592260426
0	175952	3018815.524945063994	94.201522356718
0	175961	3019034.697099266428	219.17215420243
0	175966	3019095.92311777782	61.226018511392
0	175971	3019181.471248217073	85.548130439253
0	175976	3019200.605783278078	19.134535061005
0	175981	3019230.344767829539	29.738984551461
0	175986	3019367.621160447079	137.27639261754
0	175991	3019367.695522421872	0.074361974793
0	176000	3019473.264598641486	34.561454853124
0	176005	3019489.292293558236	16.02769491675
0	176012	3019701.394645048338	32.317056040705
0	176019	3019884.694266323806	31.804112069914
0	176026	3020043.273856305643	34.180979766161
0	176033	3020137.004248364281	35.581902036273
0	176044	3020297.375389884537	45.111011769046
0	176049	3020310.351957496066	12.976567611529
0	176054	3020342.456771845388	32.104814349322
0	176061	3020382.917709829909	34.730347138095
0	176068	3020659.919651739718	8.372596573364
0	176075	3020714.976148297881	12.906380818337
0	176088	3020950.792737658099	195.22530555052
0	176091	3020952.888355451849	2.09561779375
0	176098	3020958.663842230864	5.775486779015
0	176103	3020960.248140117562	1.584297886698
0	176110	3021009.997029817131	34.360387270423
0	176119	3021253.657528602579	166.71798958349
0	176124	3021274.219112903233	20.561584300654
0	176133	3021640.818521253059	13.336308600054
0	176140	3021823.554237050072	39.00537510143
0	176147	3022043.956405199694	25.213479857059
0	176156	3022909.613503931178	32.381549032612
0	176161	3022925.43088117436	15.817377243182
0	176168	3023078.188639574768	41.003754596652
0	176175	3023231.552488652115	24.905542855887
0	176182	3023289.505387288678	2.996179638613
0	176189	3023492.160235102142	13.090315866212
0	176196	3023500.323560297112	7.563226221129
0	176205	3023643.419837194618	83.996867220011
0	176212	3023717.774492123295	74.354654928677
0	176217	3023737.958086776091	20.183594652796
0	176224	3024046.867515285618	52.00022654026
0	176231	3024283.747051154221	51.406406885213
0	176238	3024327.764663790948	1.99541031487
0	176245	3024760.323661692382	81.008332484719
0	176252	3025024.526561409071	118.64599429351
0	176259	3025100.15364098289	56.723582470091
0	176266	3025186.919042024001	33.376058561636
0	176273	3025271.426338500958	20.328325481446
0	176288	3025483.911699604506	126.86155399699
0	176293	3025519.097480861356	35.18578125685
0	176298	3025560.972267856061	41.874786994705
0	176303	3025571.621735950928	10.649468094867
0	176308	3025574.240728116625	2.618992165697
0	176315	3025702.421843406623	43.179001567443
0	176322	3025729.627983477207	2.568574079426
0	176329	3025815.247037705893	20.464578037621
0	176373	3026725.201709936223	0.314810528438
0	176386	3026934.437435710891	209.23572577467
0	176391	3026978.742696715165	44.305261004274
0	176398	3027068.324299298069	89.581602582904
0	176403	3027108.166974374071	39.842675076002
0	176410	3027172.520502269817	64.353527895746
0	176419	3027246.822440759163	74.301938489346
0	176424	3027254.509535871579	7.687095112416
0	176431	3027312.429109309207	57.919573437628
0	176438	3027378.866821809685	66.437712500478
0	176443	3027403.949810330277	25.082988520592
0	176450	3027531.090727130869	33.547711780521
0	176457	3027746.227391010905	21.3800748786
0	176482	3028803.444021211796	11.077072323939
0	176487	3028868.982787530893	65.538766319097
0	176500	3028983.847093353005	114.86430582211
0	176505	3029000.662356677299	16.815263324294
0	176510	3029048.852798962106	48.190442284807
0	176517	3029119.4127742251	70.559975262994
0	176522	3029143.763210480361	24.350436255261
0	176529	3029336.871927502162	26.75743931187
0	176536	3029598.510073691787	33.844637492918
0	176543	3029625.611752088601	10.523046769495
0	176550	3029696.022297330008	46.731553348749
0	176557	3029841.282877082019	34.156854042154
0	176566	3029958.723310120989	39.942720017725
0	176571	3029985.177803434078	26.454493313089
0	176578	3030033.864358723462	13.71474782455
0	176585	3030286.015505101556	48.747922837102
0	176594	3030355.071113652891	16.449967473341
0	176599	3030429.856802999981	74.78568934709
0	176606	3030679.021779439081	21.459713930743
0	176613	3030815.196456542017	26.171331054822
0	176622	3031082.811289003339	127.8353906607
0	176627	3031090.386543656866	7.575254653527
0	176634	3031226.006172200914	116.34060306704
0	176643	3031313.349690092666	50.729113915031
0	176646	3031313.423666148211	0.073976055545
0	176655	3031380.344261233613	17.835061746926
0	176664	3031481.259689221741	59.662167266517
0	176669	3031522.376127196126	41.116437974385
0	176676	3031663.244325748851	93.072487115035
0	176683	3031785.843126747598	19.673404340068
0	176690	3031801.738646199157	1.320588047837
0	176697	3031807.104314457518	0.867063982752
0	176704	3031868.910328603642	9.302352423493
0	176718	3032505.261980780767	64.623107929225
0	176723	3032506.595253266583	1.333272485816
0	176734	3032685.680546573002	25.721118948696
0	176741	3032755.76480984267	33.681584167043
0	176748	3032928.877806037888	63.858357737044
0	176755	3033149.864918614932	13.34218725513
0	176762	3033241.023526046673	87.571835026193
0	176769	3033316.59844492734	54.522771363488
0	176777	3033682.635734909885	5.614710675965
0	176791	3034024.008479297257	46.528107760588
0	176796	3034104.605354786062	80.596875488805
0	176803	3034132.210480215679	27.605125429617
0	176806	3034133.221798914855	1.011318699176
0	176811	3034136.524763617626	3.302964702771
0	176820	3034186.592304588117	30.450626553202
0	176833	3034525.800356676944	171.43305574388
0	176838	3034531.701761965884	5.90140528894
0	176843	3034570.296007730883	38.594245764999
0	176848	3034578.335677606988	8.039669876105
0	176859	3034895.447975270965	71.569600827063
0	176864	3034924.464307869101	29.016332598136
0	176871	3034946.873274609585	22.408966740484
0	176876	3034977.132362431739	30.259087822154
0	176885	3035081.109110432293	8.325264776096
0	176890	3035094.297488000473	13.18837756818
0	176897	3035139.256253195347	41.57224487773
0	176904	3035158.657573167285	2.08839353841
0	176911	3035204.063411072102	7.858104510271
0	176918	3035283.832549564304	57.628584787263
0	176927	3035335.667158425401	42.060754506647
0	176932	3035345.354549675216	9.687391249815
0	176939	3035358.564111267391	1.326872851948
0	176946	3035459.862729637217	89.170300324128
0	176953	3035486.210253870139	7.535473839954
0	176960	3035526.344555364418	24.894482841261
0	176967	3035574.98354131562	8.000904994949
0	176980	3035607.245845110757	28.352022803123
0	176985	3035632.294246484413	25.048401373656
0	176990	3035644.563022611127	12.268776126714
0	176995	3035689.160870551635	44.597847940508
0	177006	3035811.976831235385	30.811594549332
0	177011	3035813.927678252019	1.950847016634
0	177016	3035907.176626182256	93.248947930237
0	177023	3036267.817339584918	2.785691315799
0	177030	3036359.884239095656	28.135423148659
0	177039	3036633.683555810053	30.916795295661
0	177046	3036660.200127962024	26.516572151971
0	177051	3036695.294439927602	35.094311965578
0	177062	3036856.488520464496	74.520758204778
0	177071	3036924.694031849673	68.205511385177
0	177076	3036929.951522816441	5.257490966768
0	177081	3036936.08723290737	6.135710090929
0	177086	3036937.768526813807	1.681293906437
0	177093	3036976.183597424926	10.678366693377
0	177100	3037038.746270401662	15.865181808505
0	177108	3037376.454804529082	9.656055444898
0	177119	3037611.212411774149	6.20443287853
0	177130	3037704.433024806676	56.005948230805
0	177141	3037771.125281161068	66.692256354392
0	177146	3037785.2942535647	14.168972403632
0	177155	3037801.96770122615	16.67344766145
0	177162	3037893.266901447219	91.299200221069
0	177167	3037923.684108737978	30.417207290759
0	177172	3037928.873036824241	5.188928086263
0	177181	3038043.019218269088	45.018380781826
0	177186	3038048.578111620401	5.558893351313
0	177193	3038069.309221978311	15.318315783482
0	177202	3038097.791904312226	17.88609382842
0	177207	3038114.697475287861	16.905570975635
0	177214	3038145.857133591156	0.956324877129
0	177221	3038174.466326048678	24.575969790555
0	177237	3038513.660671198743	52.641828651916
0	177244	3038645.637365186153	78.523723102496
0	177251	3038744.71543532032	59.667319321571
0	177258	3038988.534988576126	59.935922643838
0	177267	3039289.647667413437	68.405308054299
0	177272	3039316.617060137038	26.969392723601
0	177281	3039610.442340700377	47.071781303323
0	177286	3039649.262847691439	38.820506991062
0	177293	3039837.299799095138	44.115953140593
0	177300	3039959.538698186465	12.142992268265
0	177309	3039984.313888157453	17.93139673845
0	177314	3040007.304455962636	22.990567805183
0	177321	3040116.798738799998	38.88372835647
0	177328	3040164.382528565251	29.594493138574
0	177337	3040263.254631161716	32.042707447446
0	177342	3040271.183709842499	7.929078680783
0	177349	3040657.333116751203	35.950748082846
0	177358	3040751.092678932222	43.548342513064
0	177363	3040781.001210962098	29.908532029876
0	177370	3040928.585894029926	25.248758936034
0	177377	3040982.112788858055	0.263877308816
0	177388	3041120.889095583134	105.94905413445
0	177393	3041130.887052831159	9.997957248025
0	177400	3041184.322263021854	53.435210190695
0	177405	3041239.132256965548	54.809993943694
0	177412	3041434.64345980128	114.25602252904
0	177419	3041701.679970814362	5.377584986421
0	177428	3041870.788816252724	23.536346074189
0	177433	3041901.009841947873	30.221025695149
0	177440	3042330.717608145228	24.28876520574
0	177447	3042419.147127324404	56.693045943349
0	177454	3042470.443503794327	43.411354499761
0	177461	3042575.384372858618	41.456159502913
0	177468	3042750.645522534679	0.244764364657
0	177479	3042848.657279534543	33.645520018578
0	177484	3042958.047769421751	109.39048988721
0	177489	3042987.251362269954	29.203592848203
0	177496	3043624.517047747698	21.061395760707
0	177503	3043736.565477643312	14.368201306727
0	177514	3044067.646485468585	139.99234509836
0	177519	3044082.344385160028	14.697899691443
0	177526	3044127.547288583845	45.202903423817
0	177531	3044130.363891940251	2.816603356406
0	177538	3044486.428740307213	34.925043261443
0	177551	3044581.327979744661	63.351255413918
0	177556	3044620.021239095266	38.693259350605
0	177561	3044651.780418800364	31.759179705098
0	177570	3044759.916259196014	108.13584039565
0	177582	3044994.883372543266	14.516385734049
0	177587	3045020.104864122734	25.221491579468
0	177592	3045032.950767877906	12.845903755172
0	177599	3045162.952123578835	15.735008000591
0	177612	3045799.107757578167	124.73273074244
0	177618	3045819.417604438191	20.309846860024
0	177777	3050630.567503759701	37.702719108661
0	177782	3050639.149116164544	8.581612404843
0	177787	3050679.576904216752	40.427788052208
0	177792	3050711.804135480334	32.227231263582
0	177797	3050716.065279809728	4.261144329394
0	177806	3050775.376660383467	59.311380573739
0	177811	3050776.112016979332	0.735356595865
0	177816	3050822.830296071995	46.718279092663
0	177827	3050901.641406130489	78.811110058494
0	177832	3050919.519776517814	17.878370387325
0	177837	3050950.14295534714	30.623178829326
0	177842	3050953.282032967583	3.139077620443
0	177847	3050960.723263477179	7.441230509596
0	177852	3050990.455642351928	29.732378874749
0	177857	3051009.270007977277	18.814365625349
0	177862	3051011.07703425835	1.807026281073
0	177869	3051205.382869611272	14.389669398801
0	177876	3051346.05714099442	67.464715696156
0	177883	3051407.695392670346	24.020823748725
0	177892	3051495.483603532337	31.36899674747
0	177901	3051619.244755528787	123.76115199645
0	177908	3051679.656119384604	60.411363855817
0	177913	3051683.544443653249	3.888324268645
0	177920	3051696.565257523921	13.020813870672
0	177925	3051782.318802525428	85.753545001507
0	177936	3052501.839633741142	124.02301058701
0	177941	3052516.353503474664	14.513869733522
0	177946	3052577.319259317026	60.965755842362
0	177955	3052764.824934317121	32.748057985834
0	177960	3052774.760079620478	9.935145303357
0	177967	3052999.434561995298	79.809017810184
0	177974	3053105.153354489794	12.305889047685
0	177981	3053316.416651405999	49.944513026917
0	177990	3053432.311809102885	42.06678512023
0	177995	3053459.17838293507	26.866573832185
0	178008	3053576.433086063097	66.853547832677
0	178013	3053659.991380242516	83.558294179419
0	178018	3053673.681275300667	13.689895058151
0	178023	3053693.799953610212	20.118678309545
0	178030	3053821.875383713719	59.667476119615
0	178037	3053833.031623312374	8.41484035723
0	178057	3055148.843158257796	16.810053855922
0	178060	3055148.891272485548	0.048114227752
0	178065	3055151.392052985145	2.500780499597
0	178074	3055256.290011942375	49.440368995409
0	178083	3055463.230385454314	86.293989423854
0	178092	3055538.593397047697	75.363011593383
0	178095	3055538.775642408461	0.182245360764
0	178102	3055564.491225764248	25.715583355787
0	178109	3055637.323721317741	7.628552507193
0	178120	3055689.157943813382	25.933927293776
0	178125	3055697.343725641836	8.185781828454
0	178128	3055698.703553397985	1.359827756149
0	178137	3055784.377735596944	17.445423954608
0	178144	3055872.038176386441	23.020293053525
0	178153	3055982.967507230625	25.921788644997
0	178158	3055994.134203203107	11.166695972482
0	178165	3056494.7602323386	5.943880194141
0	178172	3056539.830086924691	25.002083967795
0	178179	3056704.078536701692	0.297769960091
0	178190	3056812.682173725707	91.541832650528
0	178195	3056857.825737479721	45.143563754014
0	178200	3056872.217206889732	14.391469410011
0	178207	3056974.818195355095	1.760795136039
0	178218	3057248.207874608471	23.986973667983
0	178223	3057343.025646092765	94.817771484294
0	178228	3057387.881724997446	44.856078904681
0	178237	3057753.442530475068	22.044589648703
0	178242	3057767.659082228751	14.216551753683
0	178249	3057896.571712902544	36.3366977565
0	178256	3058039.186788177824	43.32526129219
0	178265	3058140.998936686905	35.460120912631
0	178268	3058141.607509030077	0.608572343172
0	178297	3058783.99502591954	16.80338148244
0	178304	3058912.261743182435	128.26671726289
0	178309	3058944.938435011253	32.676691828818
0	178314	3058975.946621768303	31.00818675705
0	178319	3058993.56186127314	17.615239504837
0	178322	3058994.318449560176	0.756588287036
0	178331	3059018.36099908985	2.738189727527
0	178338	3059256.730888281561	36.043637456616
0	178345	3059344.193255433592	33.32214621831
0	178352	3059481.761063080186	61.15152491352
0	178361	3059556.798352557104	48.87585763573
0	178372	3059601.551416597763	44.753064040659
0	178377	3059614.769503207594	13.218086609831
0	178384	3059671.223584760171	6.133537244634
0	178391	3060219.640595047879	31.868472016989
0	178398	3060411.596427785119	92.369664640926
0	178405	3060475.839535756385	51.845871173142
0	178414	3060642.005608832851	123.08140131726
0	178419	3060649.634360087981	7.62875125513
0	178426	3060842.130189744572	4.899463713069
0	178435	3061013.829594212725	53.796553620811
0	178444	3061153.888619075927	140.0590248632
0	178451	3061225.801799198838	71.913180122911
0	178456	3061231.137938917303	5.336139718465
0	178459	3061231.154754751771	0.016815834468
0	178468	3061542.591009926195	85.121208620472
0	178475	3061874.174775000751	51.322410605031
0	178482	3061897.825867562347	3.66266311941
0	178489	3061930.05494967817	6.408657792776
0	178496	3061965.885700885211	2.906570516215
0	178505	3062270.625623283068	6.25611332988
0	178510	3062278.693959924911	8.068336641843
0	178517	3062437.199893470652	118.06432386767
0	178526	3062739.171369815109	15.246937887968
0	178531	3062763.639937340596	24.468567525487
0	178538	3062881.610635951727	0.274366657747
0	178545	3063229.881064223105	20.115523926241
0	178552	3063375.451737698315	9.286288359938
0	178559	3063563.230803407227	8.512319034362
0	178568	3063998.186614165753	33.07576072884
0	178573	3064044.716424448964	46.529810283211
0	178580	3064220.809579520784	94.136200809455
0	178587	3064484.881231739359	14.51790636466
0	178598	3064779.259975425529	90.443098606471
0	178603	3064788.265864986028	9.005889560499
0	178608	3064799.978182507995	11.712317521967
0	178615	3064978.709298457697	1.429547527127
0	178622	3065176.877753783222	22.519647595568
0	178675	3066816.915490181785	66.256511673512
0	178680	3066826.216619041377	9.301128859592
0	178685	3066866.742420823623	40.525801782246
0	178692	3066887.798348965963	21.05592814234
0	178697	3066932.638649651353	44.84030068539
0	178702	3066941.271269623988	8.632619972635
0	178707	3066963.807314583113	22.536044959125
0	178714	3067076.118426662874	88.96992300408
0	178721	3067217.229222226588	43.946324776149
0	178728	3067256.232183665535	14.255666247341
0	178735	3067271.323863487453	7.673522445477
0	178742	3067319.288126204374	9.921263032738
0	178749	3067450.136978176761	11.976797306312
0	178756	3067463.325274548466	4.520826833427
0	178763	3067519.611725440021	41.529469893263
0	178770	3067555.884626098149	34.910037727742
0	178777	3067578.133740759591	2.145179005498
0	178784	3067836.718211679824	14.255632210507
0	178791	3067957.79397890731	48.0363641861
0	178798	3068131.270676416948	146.37149543491
0	178805	3068266.291872421041	54.187690895926
0	178812	3068552.1920935571	127.94314668172
0	178819	3068614.213924668063	16.149712300623
0	178892	3070113.355358455631	24.182764188873
0	178897	3070114.555540960797	1.200182505166
0	178902	3070122.918795440996	8.363254480199
0	178907	3070151.754172370909	28.835376929913
0	178912	3070165.651325951694	13.897153580785
0	178917	3070174.385375492724	8.73404954103
0	178922	3070286.429152294999	112.04377680227
0	178931	3070349.529069097145	59.602540244913
0	178936	3070360.352195730319	10.823126633174
0	178943	3070415.633629677794	5.100360090588
0	178950	3070530.085834734204	33.707690370829
0	178957	3070575.587538704227	16.364843362534
0	178964	3070669.01770693109	9.819910430411
0	178971	3070852.540456787471	45.510691698685
0	178980	3071018.461295203392	18.390223425797
0	178985	3071045.335880897302	26.87458569391
0	178992	3071085.827465044518	7.346607869947
0	178999	3071379.172700687813	7.405291253637
0	179010	3071763.206370535332	40.389693408993
0	179017	3071833.622963168126	17.913661100268
0	179024	3071899.488298378465	32.090672980513
0	179033	3071962.892937002756	0.25843028166
0	179040	3072017.773363107221	35.012975018117
0	179047	3072187.388664734724	44.605879269837
0	179058	3072320.527084874244	57.833243319284
0	179063	3072339.720747458483	19.193662584239
0	179068	3072372.81263728781	33.091889829327
0	179077	3072413.162872336678	12.222360783308
0	179082	3072430.151874108144	16.989001771466
0	179091	3072539.619073303848	96.486032446257
0	179096	3072571.185878042278	31.56680473843
0	179103	3072837.447867206612	12.683303947024
0	179110	3072893.345907007475	1.011849461656
0	179125	3073210.041866782494	251.27115417211
0	179130	3073235.059684257377	25.017817474883
0	179135	3073265.385442489182	30.325758231805
0	179140	3073270.572921489996	5.187479000814
0	179145	3073306.582838657671	36.009917167675
0	179152	3073330.913985617761	18.032861223265
0	179161	3073466.077660333654	56.446413767631
0	179168	3073525.925897392724	59.84823705907
0	179173	3073579.146651321614	53.22075392889
0	179180	3073674.187682193391	6.363237046253
0	179189	3073859.202223639971	46.979593731958
0	179194	3073897.197811244611	37.99558760464
0	179201	3073924.557434441399	2.772915900099
0	179212	3074299.574821548727	145.2735426489
0	179217	3074417.662463789382	118.08764224066
0	179224	3074499.898914785027	82.236450995645
0	179233	3074585.517524295911	85.618609510884
0	179248	3074962.869763433778	20.168036983063
0	179255	3074995.994809579883	15.622438696333
0	179262	3075005.685462184484	3.974038844511
0	179273	3075320.518199726819	1.206389589542
0	179282	3075366.694762785603	6.997302563126
0	179287	3075523.859603771953	157.16484098635
0	179296	3075590.612063344901	25.413121678893
0	179303	3075617.060876590681	26.44881324578
0	179308	3075618.23114482939	1.170268238709
0	179315	3075694.271679566103	5.365506882368
0	179342	3076882.668530966335	10.616261039025
0	179347	3076909.529229407929	26.860698441594
0	179352	3076910.870851151873	1.341621743944
0	179357	3076923.763007102772	12.892155950899
0	179366	3076981.411604722774	57.648597620002
0	179399	3077914.199104635291	13.590384797265
0	179412	3078075.243754584893	94.164398925708
0	179417	3078100.241833290502	24.998078705609
0	179424	3078221.166224803038	8.034745649046
0	179431	3078323.922354501338	36.452120641004
0	179438	3078352.061157537138	26.204236376542
0	179447	3078726.152872315587	61.57475150366
0	179452	3078754.649794050673	28.496921735086
0	179463	3078851.404029188692	65.459999637663
0	179468	3078870.505675508731	19.101646320039
0	179475	3078941.401466176069	70.895790667338
0	179480	3078950.779250475862	9.377784299793
0	179491	3079251.157086249901	82.208289268673
0	179496	3079259.79522516038	8.638138910479
0	179501	3079269.352192835321	9.556967674941
0	179508	3079348.456597414754	22.058536522296
0	179515	3079521.236440065317	31.984477914758
0	179524	3079607.679418477671	83.475759070082
0	179529	3079609.950611589874	2.271193112203
0	179536	3079696.593407231045	8.260299742038
0	179543	3079755.822418582638	13.425021291556
0	179550	3079772.570489139966	13.784789389048
0	179557	3079805.619563104169	9.788772156111
0	179564	3079972.058454326184	15.23348749923
0	179571	3080071.561592245351	44.592701321078
0	179578	3080272.856919057114	2.345120496523
0	179587	3080316.625834557908	36.589331177936
0	179594	3080323.839639763558	7.21380520565
0	179599	3080324.372896572909	0.533256809351
0	179606	3080394.09215197184	13.695358199742
0	179613	3080642.421691870651	33.403933064056
0	179620	3080680.886122336432	3.216714772429
0	179629	3080792.492504547318	62.164455818274
0	179634	3080819.656726240261	27.164221692943
0	179641	3080918.019262678384	0.115913086361
0	179648	3081104.145479781594	33.441488478836
0	179655	3081195.387572500708	22.972287558579
0	179664	3081325.451059440381	108.71136716415
0	179669	3081334.755625972744	9.304566532363
0	179676	3081695.76736620096	30.899889625083
0	179689	3081757.047354433977	22.024284639265
0	179694	3081793.068724895303	36.021370461326
0	179699	3081818.693010668514	25.624285773211
0	179704	3081843.656597944799	24.963587276285
0	179711	3081946.82780439702	9.99414727728
0	179718	3082231.480683716139	17.947449473381
0	179725	3082511.302103873978	13.165347852564
0	179732	3082601.073164560193	36.700720328464
0	179739	3083114.566429153918	29.896732212935