version 2
run Simulations-2-20191218-11:09:12-65753
attr configname Simulations
attr datetime 20191218-11:09:12
attr experiment Simulations
attr inifile omnetpp.ini
attr iterationvars "$seed=7, $0=1980"
attr iterationvarsf seed=7,1980-
attr measurement "$seed=7, $0=1980"
attr network WifiCelNetPassiveQueue
attr processid 65753
attr repetition 0
attr replication #0
attr resultdir results/Simulations/omnet
attr runnumber 2
attr seedset 7
itervar seed 7
param **.numJobs 10000
param *.OFFLOAD.deadline exponential(1980s)
param *.source.interArrivalTime exponential(120s)
param *.WIFI.serviceTime exponential(40s)
param *.CELL.serviceTime exponential(400s)
param *.OFFLOAD.switchToWi exponential(1524s)
param *.OFFLOAD.switchToCel exponential(3120s)
param *.LOCAL.serviceTime exponential(5s)
param *.REMOTE.serviceTime exponential(1s)

vector 0 WifiCelNetPassiveQueue.OFFLOAD queueLength:vector ETV
attr interpolationmode sample-hold
attr title "queue length, vector"
vector 1 WifiCelNetPassiveQueue.WIFI serviceTime:vector ETV
attr interpolationmode none
attr title "wifi Service, vector"
attr unit s
vector 2 WifiCelNetPassiveQueue.WIFI responseTime:vector ETV
attr interpolationmode none
attr title "Response Time, vector"
attr unit s
vector 3 WifiCelNetPassiveQueue.REMOTE serviceTime:vector ETV
attr interpolationmode none
attr title "wifi Service, vector"
attr unit s
vector 4 WifiCelNetPassiveQueue.REMOTE responseTime:vector ETV
attr interpolationmode none
attr title "Response Time, vector"
attr unit s
vector 5 WifiCelNetPassiveQueue.sink lifeTime:vector ETV
attr interpolationmode none
attr title "lifetime of arrived jobs, vector"
attr unit s
vector 6 WifiCelNetPassiveQueue.OFFLOAD storeCelTime:vector ETV
attr interpolationmode none
attr title "Time in Cell, vector"
attr unit s
vector 7 WifiCelNetPassiveQueue.OFFLOAD storeDeadline:vector ETV
attr interpolationmode none
attr title "deadline, vector"
attr unit s
vector 8 WifiCelNetPassiveQueue.CELL serviceTime:vector ETV
attr interpolationmode none
attr title "wifi Service, vector"
attr unit s
vector 9 WifiCelNetPassiveQueue.CELL responseTime:vector ETV
attr interpolationmode none
attr title "Response Time, vector"
attr unit s
vector 10 WifiCelNetPassiveQueue.LOCAL serviceTime:vector ETV
attr interpolationmode none
attr title "wifi Service, vector"
attr unit s
vector 11 WifiCelNetPassiveQueue.LOCAL responseTime:vector ETV
attr interpolationmode none
attr title "Response Time, vector"
attr unit s
vector 12 WifiCelNetPassiveQueue.OFFLOAD storeWifiTime:vector ETV
attr interpolationmode none
attr title "Time in Wifi, vector"
attr unit s
vector 13 WifiCelNetPassiveQueue.REMOTE queueLength:vector ETV
attr interpolationmode sample-hold
attr title "queue length, vector"
vector 14 WifiCelNetPassiveQueue.LOCAL queueLength:vector ETV
attr interpolationmode sample-hold
attr title "queue length, vector"
0	174761	3000038.201139005097	2
0	174762	3000047.583481750971	1
0	174767	3000059.471754887964	0
0	174794	3000607.068243230549	1
0	174795	3000626.252017368657	0
0	174801	3000659.298540055938	1
0	174803	3000681.780722490246	2
0	174804	3000729.570695810176	1
0	174810	3000771.658608320539	2
0	174811	3000776.588545530488	1
0	174817	3000776.962346993167	2
0	174819	3000821.99374408355	3
0	174820	3000843.153058892124	2
0	174825	3000860.869371117875	1
0	174830	3000871.780270607725	0
0	174858	3001449.31456905804	1
0	174859	3001514.379982473642	0
0	174865	3001678.995705706253	1
0	174867	3001738.108398792451	2
0	174869	3001740.380724501534	3
0	174870	3001751.605935186142	2
0	174874	3001916.467599337218	1
0	174880	3001917.516341618705	2
0	174882	3001923.588908193879	3
0	174884	3002067.040290291778	4
0	174886	3002304.152397293055	5
0	174888	3002338.888103628559	6
0	174890	3002462.293541815264	7
0	174892	3002618.337327779124	8
0	174893	3002642.202390813734	7
0	174899	3002645.321358304199	8
0	174901	3002983.772870541566	9
0	174903	3003060.350560423102	10
0	174905	3003199.387875307032	11
0	174906	3003210.241143853569	10
0	174911	3003280.518324363645	11
0	174912	3003311.799855920103	10
0	174917	3003341.460414419934	11
0	174919	3003541.694794024804	12
0	174921	3003666.937182929119	13
0	174923	3003669.663675987789	14
0	174924	3003673.765249959601	13
0	174928	3003695.297008359042	14
0	174930	3003697.968193304424	13
0	174935	3003727.520636365706	12
0	174940	3003730.99111342628	11
0	174946	3003747.559964286332	10
0	174949	3003747.950524008515	9
0	174960	3003798.215220038316	8
0	174965	3003804.137350739629	7
0	174970	3003812.006591714236	6
0	174975	3003845.337975683553	5
0	174980	3003868.542595607927	4
0	174985	3003906.499963367109	3
0	174990	3003919.857171707588	2
0	174995	3003923.469564130948	1
0	175000	3004042.50347918155	0
0	175055	3005261.952507070626	1
0	175057	3005290.843623317634	2
0	175058	3005296.205189306804	1
0	175063	3005310.075858430275	0
0	175069	3005345.587394072503	1
0	175070	3005393.739462142046	0
0	175146	3007035.45570577272	1
0	175147	3007063.526833862133	0
0	175195	3007777.366315279707	1
0	175196	3007850.456257108738	0
0	175217	3008545.6417412308	1
0	175219	3008634.424777528072	2
0	175221	3008635.90909824085	3
0	175223	3008672.942024636452	4
0	175225	3008834.6915331125	5
0	175227	3008846.416575048014	6
0	175228	3008851.884201302343	5
0	175231	3008870.995600867773	6
0	175232	3008898.914708258026	5
0	175237	3008920.012345252308	4
0	175246	3009194.11694516927	3
0	175252	3009279.148489120414	4
0	175254	3009370.35851571322	5
0	175256	3009478.890467907601	6
0	175257	3009483.568372620333	5
0	175262	3009548.235307715437	4
0	175267	3009562.804832137963	3
0	175273	3009567.032257834297	4
0	175274	3009608.806446447924	3
0	175280	3009613.248716197194	4
0	175281	3009679.319290832104	3
0	175286	3009707.929628180264	2
0	175292	3009715.433394304364	3
0	175293	3009721.029499651176	2
0	175298	3009741.681069136831	1
0	175303	3009770.593735777106	0
0	175330	3010887.560115683674	1
0	175331	3010954.032014752626	0
0	175344	3011003.467484806097	1
0	175345	3011003.939794191919	0
0	175365	3011236.077329407029	1
0	175366	3011297.441727946689	0
0	175379	3011350.877756569525	1
0	175381	3011354.418935309198	2
0	175383	3011357.360169967512	3
0	175384	3011361.524598016853	2
0	175390	3011384.934577564874	3
0	175392	3011393.171447377474	4
0	175394	3011423.598581934973	5
0	175395	3011461.183251547227	4
0	175400	3011462.00528268498	3
0	175405	3011482.254797779009	2
0	175411	3011499.239179043756	3
0	175413	3011504.293262321563	4
0	175414	3011539.521437183142	3
0	175421	3011545.417490990432	4
0	175422	3011747.098725597854	3
0	175428	3011773.987972426415	4
0	175429	3011818.217702476257	3
0	175436	3011879.522132222556	4
0	175437	3011912.809820464516	3
0	175442	3011944.119917945459	2
0	175447	3012026.832002232748	1
0	175452	3012067.703878616429	0
0	175458	3012082.323845993388	1
0	175460	3012107.425598901272	2
0	175461	3012141.72641705361	1
0	175466	3012153.945793933943	0
0	175480	3012289.149952828356	1
0	175482	3012358.461807919267	2
0	175484	3012403.043445266743	3
0	175486	3012453.874057353753	4
0	175487	3012553.043442865208	3
0	175493	3012553.594479314457	4
0	175495	3012585.940418882677	5
0	175496	3012620.415207971216	4
0	175501	3012646.109889176481	5
0	175503	3012707.920132977778	6
0	175504	3012708.435843218347	5
0	175509	3012780.180769486028	6
0	175510	3012792.657535108383	5
0	175516	3012857.499306446275	6
0	175517	3013133.516870409778	5
0	175519	3013138.760433425993	4
0	175525	3013158.13667785995	5
0	175526	3013161.042681978285	4
0	175531	3013229.519586546271	3
0	175537	3013258.42538912983	2
0	175542	3013275.162217062887	1
0	175551	3013344.191890911634	0
0	175571	3013760.781334685743	1
0	175572	3013761.22897870315	0
0	175578	3013770.631463192727	1
0	175580	3013780.542291700312	2
0	175581	3013809.335311677276	1
0	175587	3013834.968706444525	2
0	175588	3013959.224090392943	1
0	175593	3014023.038046427213	0
0	175599	3014025.183227090141	1
0	175600	3014037.847721076993	0
0	175656	3015306.656472355454	1
0	175658	3015562.824490803362	2
0	175660	3015571.116548605956	3
0	175661	3015686.710859347823	2
0	175666	3015850.593875120562	1
0	175672	3015883.66787606759	2
0	175674	3016033.915337334066	3
0	175675	3016120.153234116696	2
0	175680	3016143.968066286329	1
0	175686	3016187.938974969334	2
0	175688	3016234.520161373385	3
0	175690	3016300.312022048118	4
0	175692	3016509.346085641592	5
0	175694	3016793.707726474092	6
0	175695	3016823.332638937145	5
0	175701	3016846.230131971939	6
0	175702	3016863.277247701474	5
0	175707	3016920.357051797446	4
0	175712	3016927.46658231781	3
0	175718	3017041.705883406248	4
0	175720	3017124.912748047949	5
0	175722	3017250.137534980977	6
0	175723	3017260.483645056628	5
0	175728	3017282.823846636363	4
0	175732	3017404.550479833883	3
0	175737	3017419.3817214842	4
0	175738	3017575.768090331633	3
0	175743	3017577.389651866067	2
0	175749	3017728.763418944472	3
0	175750	3017793.865651746927	2
0	175754	3017995.388380372555	1
0	175760	3018140.339641808541	2
0	175761	3018162.410243896881	1
0	175766	3018244.449474337522	2
0	175768	3018333.027410128223	3
0	175769	3018367.912420352798	2
0	175774	3018448.148764241935	1
0	175776	3018494.407703966421	0
0	175807	3019065.96507007358	1
0	175809	3019077.246949320748	2
0	175810	3019087.170095320303	1
0	175815	3019098.318530913519	0
0	175821	3019100.271435056641	1
0	175823	3019111.523743161319	2
0	175824	3019128.188317656474	1
0	175829	3019132.51018114535	0
0	175849	3019323.52007544903	1
0	175850	3019373.435459010667	0
0	175870	3019895.73024665598	1
0	175871	3019934.115996781971	0
0	175898	3020483.416745033171	1
0	175899	3020691.595737357295	0
0	175969	3022431.077741826797	1
0	175971	3022546.075221114152	2
0	175973	3022603.445036635595	3
0	175974	3022703.216991216259	2
0	175976	3022736.677193284971	1
0	175981	3022752.738996552246	0
0	176026	3023183.761990603711	1
0	176028	3023191.520097004842	2
0	176029	3023207.66852015058	1
0	176034	3023218.052458442299	0
0	176076	3024372.115400654929	1
0	176078	3024409.464669869213	2
0	176079	3024478.063525218669	1
0	176085	3024682.209882450312	2
0	176087	3024716.414556531416	3
0	176089	3024726.667872838245	4
0	176091	3024769.612410566561	5
0	176092	3025077.710249171893	4
0	176098	3025139.86313365359	5
0	176100	3025282.577186865572	6
0	176101	3025352.343347679791	5
0	176106	3025358.461993871388	6
0	176108	3025408.209513940755	7
0	176110	3025493.108256681342	8
0	176112	3025551.358325995068	9
0	176114	3025581.448700419246	10
0	176115	3025602.417126886514	9
0	176121	3025688.243040643667	10
0	176123	3025801.540116651801	11
0	176124	3025838.752797678306	10
0	176129	3025901.195638765265	9
0	176134	3026036.25154815368	8
0	176140	3026042.60535756658	9
0	176142	3026071.107549952601	10
0	176144	3026200.180096668572	11
0	176145	3026211.568797125097	10
0	176150	3026250.820167051977	9
0	176155	3026493.488382573397	10
0	176157	3026538.01062421782	11
0	176158	3026810.397908089092	10
0	176163	3026828.153391876801	11
0	176165	3026882.820519434112	12
0	176166	3026902.949101815105	11
0	176170	3026936.614890686279	10
0	176172	3026939.450472772762	9
0	176177	3026979.079489644612	8
0	176182	3026996.502727619781	7
0	176187	3027050.683709917943	6
0	176192	3027130.056281410385	5
0	176198	3027143.1481644196	6
0	176199	3027158.037092201537	5
0	176204	3027182.929978824926	4
0	176210	3027197.743479127404	5
0	176211	3027220.019573784152	4
0	176220	3027252.190425037227	3
0	176225	3027267.104199138986	2
0	176230	3027280.20725417789	1
0	176235	3027364.612558783703	0
0	176269	3028036.909233892589	1
0	176270	3028111.774742968411	0
0	176290	3028296.780577030305	1
0	176292	3028339.285105376798	2
0	176293	3028370.895772534088	1
0	176299	3028373.745899766727	2
0	176300	3028384.887130870397	1
0	176306	3028444.915394819893	2
0	176307	3028465.012600100192	1
0	176312	3028478.590791405109	0
0	176332	3028708.390204673957	1
0	176333	3028771.011241345488	0
0	176361	3029003.732939733026	1
0	176363	3029046.843059158907	2
0	176365	3029215.551674780016	3
0	176367	3029216.091369525491	4
0	176369	3029378.357656738931	5
0	176370	3029382.379168604225	4
0	176375	3029571.892419211695	3
0	176379	3029584.139328835309	2
0	176381	3029603.695571218294	1
0	176384	3029603.993407824571	0
0	176432	3031318.67206896043	1
0	176434	3031438.438452017442	2
0	176436	3031481.533465940641	3
0	176437	3031483.279572504976	2
0	176443	3031492.747503410767	3
0	176445	3031596.897762576697	4
0	176446	3031816.73182266004	3
0	176451	3031902.287024483605	2
0	176457	3031916.894731791136	3
0	176458	3032119.705526463302	2
0	176464	3032216.111783634813	3
0	176466	3032244.143095828669	4
0	176468	3032269.976769145405	5
0	176469	3032276.623937062015	4
0	176473	3032336.705788902017	3
0	176479	3032480.263636240069	4
0	176480	3032563.862853066452	3
0	176484	3032678.225623674995	2
0	176489	3032716.802485791973	3
0	176490	3032734.666580032078	2
0	176492	3032766.745087051693	1
0	176498	3032835.30159403795	2
0	176499	3032866.158779164442	1
0	176504	3032876.041480919662	0
0	176549	3033505.422662229293	1
0	176550	3033564.826463563707	0
0	176584	3033859.313175201201	1
0	176586	3033878.816434350135	2
0	176587	3033963.531341500771	1
0	176592	3033973.131108222091	0
0	176598	3034005.553248471592	1
0	176599	3034017.001549596362	0
0	176689	3035860.068918722415	1
0	176690	3035863.337049002029	0
0	176696	3035880.185260570796	1
0	176698	3035913.94114081516	2
0	176699	3035943.802873809229	1
0	176705	3035954.097569894627	2
0	176707	3035976.792922603309	3
0	176708	3035997.624939744839	2
0	176714	3036006.063392458704	3
0	176715	3036010.560896205594	2
0	176721	3036037.195882493008	3
0	176722	3036084.202452745353	2
0	176728	3036108.352726607694	3
0	176730	3036141.920630278556	4
0	176731	3036205.643666868478	3
0	176737	3036238.276801402854	4
0	176739	3036279.666293402407	5
0	176740	3036284.515464464888	4
0	176745	3036310.574638088898	3
0	176750	3036324.103046319153	2
0	176756	3036328.264087109583	3
0	176758	3036343.503442537142	4
0	176759	3036383.270020905312	3
0	176765	3036415.91590047078	4
0	176766	3036426.91573556331	3
0	176772	3036431.8386361905	4
0	176773	3036442.75341118132	3
0	176779	3036515.713414856949	4
0	176781	3036521.342578033882	5
0	176782	3036523.681560308335	4
0	176787	3036541.281000870432	3
0	176793	3036604.051351569023	4
0	176794	3036616.70071776193	3
0	176799	3036626.969016093528	2
0	176804	3036700.327732139122	1
0	176809	3036789.704445232636	0
0	176815	3036841.483655139357	1
0	176816	3036862.185788858586	0
0	176836	3037087.836282943895	1
0	176838	3037117.074302512285	2
0	176839	3037120.850311063588	1
0	176844	3037147.891625726218	0
0	176878	3037624.354341033961	1
0	176879	3037720.423786541504	0
0	176885	3037722.182335332059	1
0	176887	3037739.809719323703	2
0	176888	3037746.536555413311	1
0	176891	3037746.912888638798	0
0	176934	3038370.725306158945	1
0	176935	3038371.534173884071	0
0	176976	3039340.66111339486	1
0	176977	3039380.067003393779	0
0	176983	3039390.861545008197	1
0	176984	3039439.299613915823	0
0	177011	3039555.206114203382	1
0	177012	3039570.580806052915	0
0	177043	3040951.569745694596	1
0	177049	3041022.484660901993	2
0	177050	3041046.517939716973	1
0	177053	3041046.612193515662	2
0	177054	3041047.901802417914	1
0	177059	3041057.97042550362	0
0	177090	3041910.17643341318	1
0	177091	3041934.246889894918	0
0	177097	3041937.770421717311	1
0	177098	3041945.250454776436	0
0	177125	3042709.512812390262	1
0	177126	3042722.749851642289	0
0	177195	3043973.345370802988	1
0	177196	3044024.6926893635	0
0	177216	3044233.904433609786	1
0	177217	3044241.307934431157	0
0	177273	3045110.426732295248	1
0	177274	3045148.544881530687	0
0	177278	3045149.527157914652	1
0	177282	3045331.959469699077	2
0	177284	3045346.220221371153	3
0	177285	3045444.407561894578	2
0	177291	3045461.067710785265	3
0	177293	3045466.526814858107	4
0	177295	3045485.353806901422	5
0	177296	3045499.852374390608	4
0	177300	3045688.98217479487	3
0	177305	3045776.181005698594	4
0	177307	3045780.663310161051	5
0	177309	3045888.07397777684	6
0	177311	3045905.193188285223	7
0	177312	3045949.383097437847	6
0	177316	3045954.121422297641	5
0	177321	3045994.775478814508	4
0	177327	3046089.090173534778	5
0	177329	3046463.818502550748	6
0	177331	3046689.388965096414	7
0	177332	3046691.59597643143	6
0	177338	3046768.165258809391	7
0	177339	3046881.020423323924	6
0	177344	3047060.506081275909	5
0	177346	3047087.671603317972	4
0	177352	3047123.492777464461	5
0	177353	3047125.003883815638	4
0	177362	3047207.880674900909	3
0	177367	3047260.619915401145	2
0	177372	3047282.385355144331	1
0	177378	3047307.666572746447	2
0	177379	3047311.796038759096	1
0	177384	3047390.74049369886	0
0	177388	3047392.829553493217	1
0	177391	3047402.852771742675	0
0	177433	3048123.607212450181	1
0	177434	3048191.797651120338	0
0	177440	3048369.127353988928	1
0	177441	3048423.077951786586	0
0	177447	3048672.720330242765	1
0	177448	3048722.56701529922	0
0	177461	3048862.860738459931	1
0	177462	3049042.618732660796	0
0	177468	3049281.895616715373	1
0	177470	3049288.695735223127	2
0	177472	3049374.80132486606	3
0	177473	3049434.224184729177	2
0	177478	3049457.026239488815	3
0	177480	3049511.374811479521	4
0	177482	3049514.07327402664	5
0	177484	3049538.127254869118	6
0	177485	3049605.216759998935	5
0	177490	3049857.505185366275	6
0	177492	3049921.430133476225	7
0	177493	3049937.568920560373	6
0	177499	3049976.985877737956	7
0	177501	3050439.486150155335	8
0	177502	3050480.538741942877	7
0	177504	3050498.55828499278	6
0	177509	3050507.953583993805	5
0	177518	3050541.78033407148	4
0	177523	3050635.862276202627	3
0	177528	3050665.301173403085	2
0	177533	3050674.111075274461	1
0	177538	3050749.242362675412	0
0	177565	3051231.714360907509	1
0	177566	3051336.976539254783	0
0	177586	3052145.840350027964	1
0	177588	3052192.909845327426	2
0	177590	3052245.590695458264	3
0	177591	3052260.814067422046	2
0	177596	3052355.313366103151	1
0	177601	3052387.927440145521	0
0	177608	3052446.525092945812	1
0	177610	3052475.018812344143	2
0	177612	3052486.577500176634	3
0	177613	3052585.013532449116	2
0	177615	3052699.268635418289	1
0	177619	3052699.674869548946	2
0	177623	3052792.598012625214	3
0	177624	3052798.075966134254	2
0	177629	3052849.728606136151	1
0	177634	3052920.065193090692	0
0	177651	3053029.911134695716	1
0	177652	3053102.624040180922	0
0	177707	3053748.601464052995	1
0	177708	3053824.325520428307	0
0	177770	3054767.075008015465	1
0	177771	3054806.215598858083	0
0	177812	3055936.481450164852	1
0	177814	3055951.234962012971	2
0	177815	3055979.097154072625	1
0	177820	3055982.860147947094	0
0	177826	3055990.145794440736	1
0	177827	3056034.761637263317	0
0	177833	3056076.623747507357	1
0	177834	3056106.009250620227	0
0	177847	3056287.033514099264	1
0	177848	3056386.769847763746	0
0	177854	3056388.865087368863	1
0	177855	3056489.96214490272	0
0	177896	3057194.897661448696	1
0	177898	3057202.320214766148	2
0	177899	3057279.16715595787	1
0	177904	3057346.788526722191	0
0	177917	3057539.660498583136	1
0	177919	3057549.574531221479	2
0	177921	3057597.590000849252	3
0	177922	3057632.057934605022	2
0	177927	3057647.114227681054	1
0	177932	3057694.240566643245	0
0	177938	3057723.261266151053	1
0	177939	3057747.725226596947	0
0	177959	3058104.636160417262	1
0	177960	3058105.656104595542	0
0	177994	3058912.436864050204	1
0	177996	3058923.230860799727	2
0	177997	3058937.726484391984	1
0	178002	3058961.769884438028	0
0	178008	3058968.671261675503	1
0	178009	3058981.183834814396	0
0	178015	3059091.995929682302	1
0	178016	3059121.24077024614	0
0	178022	3059133.476083831733	1
0	178023	3059153.049482794389	0
0	178036	3059223.152608458999	1
0	178037	3059289.463142911582	0
0	178043	3059297.918941102246	1
0	178044	3059342.410738996975	0
0	178085	3060010.767808740269	1
0	178086	3060011.939536741291	0
0	178120	3061051.546545283819	1
0	178121	3061091.550512051528	0
0	178163	3062021.673348451587	1
0	178165	3062217.739334127924	2
0	178167	3062274.985554507397	3
0	178169	3062409.164533751299	4
0	178171	3062584.240905485137	5
0	178172	3062586.772783766119	4
0	178174	3062622.377631926531	3
0	178180	3062682.729478084017	2
0	178185	3062700.538623301562	1
0	178190	3062754.754422885375	0
0	178228	3063471.196021818943	1
0	178230	3063482.899120444848	2
0	178231	3063507.617429656302	1
0	178234	3063508.06114196439	0
0	178249	3063656.567443709534	1
0	178250	3063713.709929942565	0
0	178277	3063945.835566591343	1
0	178278	3063978.903095037523	0
0	178312	3064583.476618694335	1
0	178314	3064590.337712028885	2
0	178316	3064599.909412896448	3
0	178318	3064618.37859588231	4
0	178319	3064632.349369209462	3
0	178324	3064706.959457133895	2
0	178329	3064711.270316501737	1
0	178334	3064740.430134494643	0
0	178370	3065434.796080705091	1
0	178371	3065444.821510922766	0
0	178392	3065935.797645542909	1
0	178393	3065942.78174586027	0
0	178399	3066173.309486420304	1
0	178400	3066321.68203751472	0
0	178406	3066347.174685638424	1
0	178408	3066377.206494717176	2
0	178409	3066379.926453506359	1
0	178414	3066483.497662758564	2
0	178416	3066492.246718713207	3
0	178417	3066640.772570251067	2
0	178422	3066665.116929204457	3
0	178423	3066703.211140744273	2
0	178428	3066706.950671416272	3
0	178429	3066772.298712141966	2
0	178434	3066777.93165923225	3
0	178435	3066837.361057669903	2
0	178441	3066890.893070669607	3
0	178443	3066899.109163590127	4
0	178444	3066937.199502454397	3
0	178450	3066998.741192033919	4
0	178452	3067017.764115512307	5
0	178454	3067103.046735174338	6
0	178456	3067104.286083038103	7
0	178457	3067111.908080367865	6
0	178462	3067325.151012261468	7
0	178464	3067328.565089614368	8
0	178465	3067435.493473471954	7
0	178469	3067549.164114742976	6
0	178474	3067611.955587763356	7
0	178475	3067745.406622328477	6
0	178479	3067880.591437328271	5
0	178484	3067961.254065396202	6
0	178486	3068096.786166082417	7
0	178488	3068106.556793165695	8
0	178490	3068200.503188004148	9
0	178491	3068246.318600743137	8
0	178496	3068394.276963851955	9
0	178498	3068591.240935376741	10
0	178500	3068606.372393838194	11
0	178502	3068732.269713102969	12
0	178504	3068805.058560160417	13
0	178506	3068817.806963350708	14
0	178507	3068823.141969607949	13
0	178512	3069102.912519747139	14
0	178513	3069188.045002454808	13
0	178517	3069189.512658200029	12
0	178520	3069189.672351621992	13
0	178524	3069199.169288872564	14
0	178526	3069213.557046342791	15
0	178528	3069219.218149249092	16
0	178529	3069227.228658652052	15
0	178532	3069227.945954857323	14
0	178538	3069237.715220716701	13
0	178542	3069262.025401518841	12
0	178547	3069317.880214015546	11
0	178551	3069417.240824955224	10
0	178555	3069549.055932349806	9
0	178560	3069629.252883968871	10
0	178561	3069734.552505781085	9
0	178566	3069792.934173506591	10
0	178568	3069944.898712181468	11
0	178569	3070012.129031791349	10
0	178575	3070019.908680064067	11
0	178576	3070071.708860026509	10
0	178582	3070098.723851319297	11
0	178584	3070139.092513100896	12
0	178585	3070223.924821036997	11
0	178589	3070287.086743796251	10
0	178594	3070318.443992977538	11
0	178596	3070341.861567009487	12
0	178598	3070427.870650033071	13
0	178600	3070460.896097647968	14
0	178602	3070465.153030015419	15
0	178603	3070468.362237187265	14
0	178608	3070488.711386379001	15
0	178610	3070570.205057481497	16
0	178611	3070581.787682542858	15
0	178616	3070662.711442812279	16
0	178618	3070709.391118828137	17
0	178619	3070722.269763018519	16
0	178623	3070733.203659879078	15
0	178628	3070755.326843623316	16
0	178629	3070770.870016674806	15
0	178633	3070911.877975777322	14
0	178638	3070918.845981573578	13
0	178642	3071109.981846223697	12
0	178647	3071185.398188678957	13
0	178648	3071302.024098618566	12
0	178650	3071353.49662781518	11
0	178655	3071355.208420290283	10
0	178664	3071417.743688107169	9
0	178669	3071423.189470030328	8
0	178674	3071497.4402463846	7
0	178680	3071638.078080581668	6
0	178686	3071685.556105262502	5
0	178692	3071689.061148523492	6
0	178693	3071694.557930226566	5
0	178696	3071694.611278704678	4
0	178703	3071732.833965586021	3
0	178708	3071764.083448208555	2
0	178713	3071775.470598480632	1
0	178719	3071782.402747975965	2
0	178720	3071822.006981992386	1
0	178725	3071845.579448078983	0
0	178746	3072622.594279619538	1
0	178748	3072675.586985846622	2
0	178750	3072678.693349614011	3
0	178751	3072771.827054810565	2
0	178756	3072814.108391189088	3
0	178758	3073001.251913732112	4
0	178759	3073074.69680543324	3
0	178763	3073145.695389951592	2
0	178769	3073264.794350367069	3
0	178771	3073343.658267153666	4
0	178773	3073402.036587070764	5
0	178774	3073417.272361290866	4
0	178778	3073473.520451298654	3
0	178782	3073510.04638985437	2
0	178788	3073529.827795838213	3
0	178790	3073534.788382114858	4
0	178791	3073546.672182298202	3
0	178797	3073575.645301919502	4
0	178799	3073621.976976525314	5
0	178800	3073714.29086359545	4
0	178804	3073817.885216098205	3
0	178806	3073852.739153308813	2
0	178811	3073878.523326993637	1
0	178816	3073893.364389225493	0
0	178854	3074472.381293311855	1
0	178856	3074503.84025164457	2
0	178857	3074515.33029583331	1
0	178862	3074551.982000065844	0
0	178868	3074573.689755627613	1
0	178869	3074581.847648818178	0
0	178896	3074988.626398934848	1
0	178897	3075021.784136177784	0
0	178925	3075381.638568396407	1
0	178926	3075485.992696164397	0
0	178931	3075579.4558006195	1
0	178933	3075710.035321236017	2
0	178934	3075895.839643422362	1
0	178940	3076060.220684726476	2
0	178941	3076138.681952169452	1
0	178946	3076233.24146944338	0
0	178952	3076248.013858023672	1
0	178954	3076301.2251099151	2
0	178956	3076385.591708236837	3
0	178958	3076395.849982340831	4
0	178960	3076490.456946143193	5
0	178961	3076548.350829966616	4
0	178966	3076580.750529555287	3
0	178972	3076686.562527987801	4
0	178974	3076720.09466813957	5
0	178976	3076756.480740726145	6
0	178978	3076815.372801407414	7
0	178979	3076911.530895928096	6
0	178986	3076925.292787341784	7
0	178987	3076952.72638374111	6
0	178993	3076968.543175690533	7
0	178994	3077004.706294290622	6
0	179000	3077051.042393441321	7
0	179001	3077063.977710458517	6
0	179006	3077147.657473525898	5
0	179011	3077156.699055789905	4
0	179016	3077190.840476939598	3
0	179021	3077207.911886315446	2
0	179027	3077216.13559176786	3
0	179028	3077224.518573270295	2
0	179034	3077235.814422352235	3
0	179036	3077250.474493629691	4
0	179037	3077267.170993338402	3
0	179040	3077267.769935504292	2
0	179047	3077278.153538666237	1
0	179053	3077291.114713332299	2
0	179055	3077352.359066537292	3
0	179057	3077392.711202675872	4
0	179058	3077492.583163933267	3
0	179063	3077513.382191022069	2
0	179068	3077521.013739466515	1
0	179075	3077634.382851138629	2
0	179077	3077648.564440894216	3
0	179079	3077709.025020856288	4
0	179081	3077788.863571862887	5
0	179083	3077933.390054278724	6
0	179084	3078002.466169133376	5
0	179089	3078025.275946632774	4
0	179093	3078130.135219248619	3
0	179098	3078389.401895664918	2
0	179103	3078476.485024838993	1
0	179108	3078596.907020775423	0
0	179114	3078616.317678614173	1
0	179116	3078653.181393115011	2
0	179117	3078660.091205915796	1
0	179122	3078848.369467935312	0
0	179128	3078913.331079946217	1
0	179130	3079035.683987015461	2
0	179131	3079061.157483206927	1
0	179137	3079094.494580464647	2
0	179139	3079221.909210244525	3
0	179141	3079304.407859073581	4
0	179142	3079450.06154546853	3
0	179145	3079476.609080568987	4
0	179146	3079486.589604156492	3
0	179151	3079498.533509948746	2
0	179157	3079510.443804939528	3
0	179162	3079548.235789894179	2
0	179167	3079552.039068858939	1
0	179173	3079562.294372712931	2
0	179175	3079644.820386181747	3
0	179176	3079676.926266055875	2
0	179181	3079678.425377908379	1
0	179186	3079704.605882587924	0
0	179192	3079708.179468085257	1
0	179193	3079712.506318786174	0
0	179206	3079735.56597312923	1
0	179207	3079804.887597421706	0
0	179269	3081298.46273684295	1
0	179270	3081359.561311604683	0
0	179339	3083440.633329481566	1
0	179341	3083450.813277109107	2
0	179342	3083471.761110274322	1
0	179347	3083491.71676727736	0
0	179375	3083930.273557292524	1
0	179377	3083990.814610266075	2
0	179379	3084006.259365652352	3
0	179380	3084037.778022423189	2
0	179386	3084062.35389547158	3
0	179388	3084169.545138281452	4
0	179390	3084179.328184460619	5
0	179392	3084189.526570911393	6
0	179394	3084202.477508215217	7
0	179395	3084263.262438412164	6
0	179399	3084378.414851469042	5
0	179403	3084534.741262299874	4
0	179409	3084561.140840867893	5
0	179411	3084584.070782700309	6
0	179412	3084703.384322260681	5
0	179416	3084723.782040565961	4
0	179422	3084873.922591841285	5
0	179423	3084976.717492577223	4
0	179428	3085054.404724660364	3
0	179433	3085125.464868919599	4
0	179435	3085177.78552573671	5
0	179437	3085212.518031159417	6
0	179438	3085273.958865949261	5
0	179444	3085384.340577290727	6
0	179445	3085412.613232959329	5
0	179451	3085531.457754143108	6
0	179453	3085736.106777446529	7
0	179454	3085743.366677366692	6
0	179459	3085817.517497557707	7
0	179460	3085948.770034648348	6
0	179465	3086050.852736866649	7
0	179466	3086102.881865995515	6
0	179470	3086131.437680439808	5
0	179475	3086136.594660793867	6
0	179477	3086149.808066236288	7
0	179479	3086218.405696817197	8
0	179481	3086398.75565613602	9
0	179483	3086423.156112675243	10
0	179484	3086461.509118324271	9
0	179486	3086469.624776280872	8
0	179492	3086521.236802286225	7
0	179497	3086593.062878225641	6
0	179502	3086630.143285872711	5
0	179511	3086683.565250835264	4
0	179516	3086685.798885404647	3
0	179521	3086717.407635809208	2
0	179527	3086757.024245430428	3
0	179528	3086767.919070754782	2
0	179534	3086780.219986671401	3
0	179535	3086791.785328405646	2
0	179540	3086811.087512505647	1
0	179545	3086844.133671885967	0
0	179586	3087822.949043143017	1
0	179587	3087886.788109419198	0
0	179621	3088247.273552246312	1
0	179622	3088267.440999106409	0
0	179628	3088313.577449132441	1
0	179629	3088315.427178413733	0
0	179684	3089623.439119640201	1
0	179686	3089659.356900680391	2
0	179687	3089665.792065954092	1
0	179692	3089698.904097070076	0
0	179698	3089706.942140179818	1
0	179700	3089798.314574906215	2
0	179701	3089822.496166413688	1
0	179706	3089848.178802144166	0
0	179734	3090772.919264611208	1
0	179736	3090817.651963101854	2
0	179737	3090821.852865149022	1
0	179743	3090868.758704386819	2