version 2
run Simulations-33-20191218-11:09:18-65753
attr configname Simulations
attr datetime 20191218-11:09:18
attr experiment Simulations
attr inifile omnetpp.ini
attr iterationvars "$seed=25, $0=4400"
attr iterationvarsf seed=25,4400-
attr measurement "$seed=25, $0=4400"
attr network WifiCelNetPassiveQueue
attr processid 65753
attr repetition 0
attr replication #0
attr resultdir results/Simulations/omnet
attr runnumber 33
attr seedset 25
itervar seed 25
param **.numJobs 10000
param *.OFFLOAD.deadline exponential(4400s)
param *.source.interArrivalTime exponential(120s)
param *.WIFI.serviceTime exponential(40s)
param *.CELL.serviceTime exponential(400s)
param *.OFFLOAD.switchToWi exponential(1524s)
param *.OFFLOAD.switchToCel exponential(3120s)
param *.LOCAL.serviceTime exponential(5s)
param *.REMOTE.serviceTime exponential(1s)

vector 0 WifiCelNetPassiveQueue.OFFLOAD queueLength:vector ETV
attr interpolationmode sample-hold
attr title "queue length, vector"
vector 1 WifiCelNetPassiveQueue.WIFI serviceTime:vector ETV
attr interpolationmode none
attr title "wifi Service, vector"
attr unit s
vector 2 WifiCelNetPassiveQueue.WIFI responseTime:vector ETV
attr interpolationmode none
attr title "Response Time, vector"
attr unit s
vector 3 WifiCelNetPassiveQueue.REMOTE serviceTime:vector ETV
attr interpolationmode none
attr title "wifi Service, vector"
attr unit s
vector 4 WifiCelNetPassiveQueue.REMOTE responseTime:vector ETV
attr interpolationmode none
attr title "Response Time, vector"
attr unit s
vector 5 WifiCelNetPassiveQueue.sink lifeTime:vector ETV
attr interpolationmode none
attr title "lifetime of arrived jobs, vector"
attr unit s
vector 6 WifiCelNetPassiveQueue.OFFLOAD storeCelTime:vector ETV
attr interpolationmode none
attr title "Time in Cell, vector"
attr unit s
vector 7 WifiCelNetPassiveQueue.OFFLOAD storeDeadline:vector ETV
attr interpolationmode none
attr title "deadline, vector"
attr unit s
vector 8 WifiCelNetPassiveQueue.CELL serviceTime:vector ETV
attr interpolationmode none
attr title "wifi Service, vector"
attr unit s
vector 9 WifiCelNetPassiveQueue.CELL responseTime:vector ETV
attr interpolationmode none
attr title "Response Time, vector"
attr unit s
vector 10 WifiCelNetPassiveQueue.OFFLOAD storeWifiTime:vector ETV
attr interpolationmode none
attr title "Time in Wifi, vector"
attr unit s
vector 11 WifiCelNetPassiveQueue.LOCAL serviceTime:vector ETV
attr interpolationmode none
attr title "wifi Service, vector"
attr unit s
vector 12 WifiCelNetPassiveQueue.LOCAL responseTime:vector ETV
attr interpolationmode none
attr title "Response Time, vector"
attr unit s
vector 13 WifiCelNetPassiveQueue.REMOTE queueLength:vector ETV
attr interpolationmode sample-hold
attr title "queue length, vector"
vector 14 WifiCelNetPassiveQueue.LOCAL queueLength:vector ETV
attr interpolationmode sample-hold
attr title "queue length, vector"
0	175788	3000000.480604237104	1
0	175789	3000008.741094374035	0
0	175803	3000319.820556469056	1
0	175805	3000665.775138792297	2
0	175806	3000682.502917507544	1
0	175812	3000741.665302278897	2
0	175813	3000769.070131654773	1
0	175816	3000798.211961635191	2
0	175817	3000825.887053519101	1
0	175822	3000827.604068706657	0
0	175860	3001937.305628433953	1
0	175861	3001937.864425745273	0
0	175874	3002138.941711396644	1
0	175875	3002141.270038097246	0
0	175889	3002341.344777372725	1
0	175891	3002348.969503124023	2
0	175892	3002664.775458123255	1
0	175894	3002685.608872274053	0
0	175921	3003509.345936871335	1
0	175923	3003520.657077803431	2
0	175925	3003604.40475163504	3
0	175930	3003739.71835217189	2
0	175935	3003768.965926995861	1
0	175940	3003777.914530897707	0
0	175946	3003834.753673005999	1
0	175947	3003849.417594120543	0
0	175968	3004022.553589290612	1
0	175969	3004156.514957554062	0
0	175975	3004166.863679030723	1
0	175977	3004197.812958575753	2
0	175978	3004237.05175509133	1
0	175981	3004318.533404876051	0
0	175987	3004386.385100284356	1
0	175989	3004391.699744943716	2
0	175991	3004462.460850839632	3
0	175992	3004480.99896423199	2
0	175997	3004502.778410279335	1
0	176002	3004520.849779693652	0
0	176033	3004749.089919398193	1
0	176034	3004798.816476465497	0
0	176061	3005321.727588845941	1
0	176062	3005357.081747510755	0
0	176075	3005576.19695422073	1
0	176077	3005649.617878291263	2
0	176078	3005657.025369987726	1
0	176082	3005657.358805307293	2
0	176085	3005658.473417344085	1
0	176090	3005712.195123552628	0
0	176138	3006727.275460491373	1
0	176139	3006756.881031330935	0
0	176153	3007350.794816830454	1
0	176155	3007438.328272149184	2
0	176157	3007560.347690084551	3
0	176159	3007704.152551180952	4
0	176161	3007708.261802191028	5
0	176163	3008138.152505258539	6
0	176164	3008245.669311589297	5
0	176169	3008366.700697063761	4
0	176174	3008499.746974927663	3
0	176179	3008626.214007540293	4
0	176181	3008665.788152244914	5
0	176183	3008670.555826928672	6
0	176185	3008738.209862223028	7
0	176186	3008877.995374319621	6
0	176191	3008959.458649203154	7
0	176192	3008998.861263547191	6
0	176196	3009078.173814042189	5
0	176198	3009175.548512680022	4
0	176204	3009194.77213099888	5
0	176205	3009197.671055621234	4
0	176208	3009197.852974925914	3
0	176215	3009202.590838904584	2
0	176220	3009292.124376496793	1
0	176225	3009333.459307275797	0
0	176229	3009333.541798980187	1
0	176232	3009467.419610647266	0
0	176238	3009523.513467167812	1
0	176239	3009526.997766554045	0
0	176245	3009532.939541278712	1
0	176246	3009549.124823349676	0
0	176259	3009643.291135330294	1
0	176260	3009686.468708175933	0
0	176287	3010525.003961333505	1
0	176288	3010536.974965953672	0
0	176390	3011775.026035568771	1
0	176391	3011832.041359948503	0
0	176397	3011952.0146122259	1
0	176399	3011958.651646360109	2
0	176401	3012062.050922777089	3
0	176403	3012290.985346971462	4
0	176405	3012372.14504212911	5
0	176407	3012533.307930419029	6
0	176408	3012629.391711488187	5
0	176411	3012630.383524525916	4
0	176417	3012660.28511004719	3
0	176422	3012754.008970217182	2
0	176427	3012833.872495329945	1
0	176429	3012834.203380869198	0
0	176447	3013288.551264852366	1
0	176449	3013358.718891877224	2
0	176450	3013360.386131975425	1
0	176455	3013406.666875243163	2
0	176456	3013448.700193352691	1
0	176462	3013744.38972166028	2
0	176464	3013813.122797033289	3
0	176466	3013816.692641469613	4
0	176468	3013895.739628706447	5
0	176469	3013916.512486746218	4
0	176475	3014144.676570236957	5
0	176476	3014321.036640430611	4
0	176481	3014355.26427362849	3
0	176487	3014365.857628196	4
0	176488	3014380.051350704839	3
0	176493	3014772.571642740077	2
0	176498	3014782.514766749882	1
0	176503	3014788.622839990467	0
0	176602	3017233.344963299039	1
0	176604	3017328.798975483255	2
0	176606	3017442.851121021658	3
0	176607	3017664.206814966978	2
0	176613	3017760.067599504548	3
0	176615	3017922.092350511924	4
0	176616	3017953.542156348185	3
0	176620	3018045.748625940803	2
0	176625	3018220.639430262677	3
0	176626	3018248.343290945902	2
0	176632	3018289.872372879921	3
0	176633	3018299.327477688308	2
0	176639	3018301.47465424833	3
0	176641	3018364.757274054057	4
0	176642	3018414.521382769086	3
0	176647	3018446.964456321736	4
0	176649	3018602.602689623579	5
0	176651	3018876.195941937761	6
0	176652	3019022.22162144738	5
0	176658	3019124.220486272075	6
0	176659	3019163.297750170431	5
0	176664	3019270.687260767149	6
0	176666	3019431.722414098443	7
0	176667	3019542.277627104652	6
0	176673	3019703.977387467304	7
0	176675	3019725.85411533614	8
0	176676	3019759.381090696084	7
0	176680	3020017.147738259349	6
0	176685	3020112.762503717845	7
0	176687	3020131.116687225439	8
0	176689	3020508.12740054604	9
0	176691	3020544.231780599612	10
0	176693	3020635.00383566706	11
0	176694	3020639.475244322488	10
0	176696	3020651.118140391503	9
0	176699	3020651.848640324728	8
0	176702	3020653.160187013962	7
0	176711	3020725.382822013	6
0	176716	3020737.116069197598	5
0	176721	3020774.296331927762	4
0	176726	3020779.032345453855	3
0	176731	3020814.869289653169	2
0	176736	3020878.986950741132	1
0	176741	3020893.017534806362	0
0	176782	3021652.713510800076	1
0	176783	3021672.418423377729	0
0	176789	3021683.565255838386	1
0	176790	3021685.545983394635	0
0	176843	3022703.172476119794	1
0	176845	3022712.83887021901	2
0	176847	3022763.050370843947	3
0	176849	3022839.849188904083	4
0	176851	3022876.129095840569	5
0	176852	3023010.783453756813	4
0	176857	3023033.321886680982	3
0	176863	3023078.66444587123	4
0	176864	3023236.967446179065	3
0	176866	3023265.299450020284	2
0	176871	3023305.29831961992	1
0	176877	3023329.159342407809	2
0	176878	3023450.272725017389	1
0	176883	3023555.386689116371	0
0	176889	3023558.199343679395	1
0	176890	3023562.921973047951	0
0	176942	3024027.08479767177	1
0	176944	3024035.932454370808	2
0	176946	3024099.35881548443	3
0	176947	3024189.564134326902	2
0	176952	3024205.878740187923	1
0	176957	3024213.077231363521	0
0	176984	3025093.505010887306	1
0	176985	3025116.573649220263	0
0	177012	3025752.904138482125	1
0	177013	3025815.200562882497	0
0	177061	3026259.169019610112	1
0	177062	3026282.966570408254	0
0	177075	3026350.973605654467	1
0	177076	3026358.806162535925	0
0	177082	3026363.003735539281	1
0	177083	3026478.727472919438	0
0	177087	3026480.821374791422	1
0	177091	3026489.913919226008	2
0	177092	3026519.399427641916	1
0	177098	3026541.727215450225	2
0	177100	3026562.263731849088	3
0	177101	3026570.854907840188	2
0	177106	3026601.208679546886	1
0	177111	3026644.36212880943	0
0	177117	3026653.054740704639	1
0	177118	3026657.128625335458	0
0	177124	3026666.64803646825	1
0	177125	3026695.729387281433	0
0	177138	3026845.779221679936	1
0	177139	3026848.58343741683	0
0	177194	3027279.543767941407	1
0	177195	3027331.743439103728	0
0	177201	3027341.40175278033	1
0	177202	3027357.923258883615	0
0	177215	3027722.749753928958	1
0	177216	3027732.378655254917	0
0	177229	3027917.090529348045	1
0	177231	3027960.504065569786	2
0	177232	3027977.745690527237	1
0	177238	3027982.591121688148	2
0	177239	3028001.299478782544	1
0	177244	3028021.54437078892	0
0	177278	3028894.795945812688	1
0	177279	3028897.153442171091	0
0	177307	3029789.013028498546	1
0	177309	3030069.631272194904	2
0	177310	3030216.018633839021	1
0	177315	3030301.974295313952	0
0	177336	3030686.803847734859	1
0	177338	3030708.486287564594	2
0	177339	3030733.802220705927	1
0	177344	3030761.39297638015	0
0	177364	3030848.559464603057	1
0	177365	3030854.444794673344	0
0	177385	3031239.146395168324	1
0	177386	3031367.33551364533	0
0	177399	3031598.937667625357	1
0	177401	3031599.261315961409	2
0	177402	3031644.570295746364	1
0	177407	3031718.682223109701	0
0	177441	3031942.33836989125	1
0	177442	3031942.978380308074	0
0	177483	3032340.052216348269	1
0	177485	3032351.908280202334	2
0	177486	3032364.184475069443	1
0	177491	3032387.965339198513	0
0	177581	3033469.453686429631	1
0	177582	3033476.778786078756	0
0	177595	3033582.719298639668	1
0	177596	3033615.111095087081	0
0	177609	3033955.04328197176	1
0	177611	3033959.685948188234	2
0	177612	3033967.999359351766	1
0	177617	3034003.229020037791	0
0	177637	3034241.602625687312	1
0	177638	3034244.131431403706	0
0	177659	3034671.336456427257	1
0	177661	3034838.089766585159	2
0	177662	3035121.398409761895	1
0	177664	3035187.215173621083	0
0	177670	3035204.377120036105	1
0	177675	3035231.668604653734	0
0	177716	3035934.4325356082	1
0	177718	3035959.097390535575	2
0	177719	3035975.791566055338	1
0	177724	3035980.276456098856	0
0	177751	3036545.636892279044	1
0	177752	3036586.466287620227	0
0	177765	3036628.290230624132	1
0	177766	3036638.388770401703	0
0	177793	3037260.328627833451	1
0	177794	3037275.778501608796	0
0	177828	3038092.659783453844	1
0	177829	3038099.986173898198	0
0	177835	3038159.240575784555	1
0	177836	3038176.852627354313	0
0	177898	3040181.692296507657	1
0	177900	3040189.458841429483	2
0	177902	3040212.052284378093	3
0	177904	3040260.984472919163	4
0	177905	3040271.050471648574	3
0	177910	3040273.745809922753	2
0	177915	3040303.410630324589	1
0	177920	3040324.488290574458	0
0	177954	3040580.95115915852	1
0	177955	3040633.230258229794	0
0	177961	3040654.473636039245	1
0	177962	3040668.803138955361	0
0	177989	3041308.304196999995	1
0	177990	3041321.406874856968	0
0	178003	3041448.769359469094	1
0	178004	3041458.142414392904	0
0	178024	3041707.547936452624	1
0	178025	3041731.396031033801	0
0	178045	3042050.000790455279	1
0	178046	3042105.969959385954	0
0	178080	3043085.065951625869	1
0	178081	3043105.900727151542	0
0	178108	3043777.622816374582	1
0	178109	3043799.795592453445	0
0	178129	3044209.503239217469	1
0	178130	3044217.053711496857	0
0	178157	3044657.778877816425	1
0	178158	3044665.338526141507	0
0	178171	3044711.537778495285	1
0	178172	3044747.551650435561	0
0	178199	3045789.567202780133	1
0	178200	3045790.730924611385	0
0	178262	3047469.495983395809	1
0	178263	3047486.014471351782	0
0	178297	3048294.277374369993	1
0	178298	3048322.162079834076	0
0	178304	3048338.709699375911	1
0	178305	3048368.467690934068	0
0	178311	3048412.921524119416	1
0	178312	3048426.801940213379	0
0	178332	3048688.940446823024	1
0	178333	3048723.461966191372	0
0	178354	3049021.636091285084	1
0	178356	3049105.969564589156	2
0	178358	3049117.491722541514	3
0	178360	3049149.05797987782	4
0	178362	3049154.263290619414	5
0	178364	3049176.820491998112	6
0	178366	3049186.866650216187	7
0	178368	3049187.468684897207	8
0	178370	3049201.655552684457	9
0	178371	3049220.114895845667	8
0	178373	3049221.082308806466	7
0	178378	3049259.584147610232	6
0	178384	3049326.49338802222	7
0	178386	3049365.340333596957	8
0	178388	3049377.805355501409	9
0	178392	3049416.890022921188	10
0	178393	3049428.051782923234	9
0	178398	3049441.958267555593	8
0	178403	3049449.344722035599	7
0	178408	3049460.035241559438	6
0	178418	3049501.715522441784	5
0	178424	3049520.109717334641	6
0	178426	3049527.739017875935	7
0	178428	3049581.227010172184	8
0	178430	3049678.177932919088	9
0	178432	3049755.825573339487	10
0	178434	3049841.181760517126	11
0	178435	3049875.121894115511	10
0	178440	3049895.197935899006	11
0	178442	3049916.231895110583	12
0	178444	3049925.028119284207	13
0	178445	3049927.07623916773	12
0	178451	3049937.030484746234	13
0	178452	3050246.799078897184	12
0	178457	3050369.072623487123	11
0	178462	3050503.371959014664	10
0	178468	3050539.820063021575	11
0	178470	3050566.088837151428	12
0	178472	3050577.920677763607	13
0	178474	3050648.862785838376	14
0	178476	3050733.342386049501	15
0	178477	3050819.374417973339	14
0	178482	3050830.112317708513	15
0	178484	3050881.525815676012	16
0	178485	3050946.63945313909	15
0	178489	3050949.93355392344	14
0	178494	3050967.490089079629	13
0	178499	3051233.095287389492	12
0	178504	3051317.848884158079	11
0	178508	3051344.582251621339	10
0	178510	3051355.536972652326	9
0	178521	3051671.807175700412	10
0	178523	3052025.881385110161	11
0	178525	3052026.472550718207	12
0	178527	3052138.076128585929	13
0	178529	3052138.674788298823	14
0	178531	3052181.583121126261	15
0	178532	3052340.417231730658	14
0	178535	3052385.213981986244	15
0	178536	3052387.463589611279	14
0	178541	3052428.632837400803	13
0	178551	3052443.811097427281	14
0	178552	3052470.046732786969	13
0	178557	3052523.446279273024	12
0	178562	3052552.561815375103	11
0	178567	3052577.852577613002	10
0	178572	3052579.568920278185	9
0	178577	3052627.709339691751	8
0	178582	3052629.908335322489	7
0	178587	3052683.204673651484	6
0	178592	3052735.287286369362	5
0	178598	3052760.365372402932	6
0	178599	3052764.582031467229	5
0	178604	3052767.659459877839	4
0	178610	3052887.288564224032	5
0	178611	3052943.125823711998	4
0	178616	3052952.56764064975	3
0	178621	3052968.27683985741	2
0	178626	3052989.246050484715	1
0	178631	3052990.712607534596	0
0	178658	3053502.473508681199	1
0	178659	3053517.644184840357	0
0	178700	3054651.223359660663	1
0	178702	3054651.638907155442	2
0	178703	3054838.230828546429	1
0	178708	3054880.978159387554	0
0	178714	3054898.123223308017	1
0	178715	3054966.049095967014	0
0	178798	3056472.954057987118	1
0	178799	3056474.300885632936	0
0	178826	3056734.822345540889	1
0	178828	3056832.823247727417	2
0	178829	3056919.365107252335	1
0	178834	3056922.933076671381	0
0	178847	3057101.690085424542	1
0	178849	3057141.027350552411	2
0	178850	3057191.370692030015	1
0	178856	3057233.752094411989	2
0	178858	3057272.075605234059	3
0	178859	3057276.031561640959	2
0	178864	3057280.894817394614	1
0	178870	3057371.520406156426	2
0	178871	3057428.40917767409	1
0	178876	3057437.767140822315	0
0	178917	3058164.410691655421	1
0	178918	3058196.749234070934	0
0	178924	3058214.748882286582	1
0	178925	3058235.108942000058	0
0	178960	3058826.597149064907	1
0	178961	3058838.955818674058	0
0	178967	3058857.527918232165	1
0	178968	3058961.197009616968	0
0	178974	3059039.346423770819	1
0	178975	3059158.228242822278	0
0	179003	3059725.646002001178	1
0	179005	3059807.071024535357	2
0	179006	3059819.207641431046	1
0	179011	3059871.181122594067	0
0	179059	3060575.62590298086	1
0	179060	3060579.610092762247	0
0	179088	3061371.365348951516	1
0	179090	3061395.365985931376	2
0	179092	3061464.457272758772	3
0	179094	3061498.346601732893	4
0	179095	3061511.524670068623	3
0	179101	3061632.589609560035	4
0	179103	3061649.545107279798	5
0	179104	3061667.779565234135	4
0	179110	3061925.015578677934	5
0	179112	3062105.955832108202	6
0	179113	3062188.373538610469	5
0	179119	3062374.185695781977	6
0	179120	3062462.338845183872	5
0	179126	3062568.923795766786	6
0	179128	3062592.303124393711	7
0	179130	3062655.882023712904	8
0	179132	3062714.999040211978	9
0	179134	3062726.488725802938	10
0	179135	3062791.060501031301	9
0	179140	3062796.993145905327	10
0	179142	3062870.714667753925	11
0	179144	3062989.433017227098	12
0	179146	3063192.368141053606	13
0	179147	3063216.08122558591	12
0	179153	3063274.523493522387	13
0	179155	3063297.880626731472	14
0	179157	3063441.079398754063	15
0	179159	3063500.166533432821	16
0	179161	3063609.765774588568	17
0	179162	3063615.959743326962	16
0	179166	3063725.168384700787	15
0	179171	3063742.942882791621	16
0	179173	3063883.99715488247	17
0	179174	3063908.947700867936	16
0	179179	3064169.994127756495	17
0	179181	3064197.496180046459	18
0	179182	3064234.071238978871	17
0	179187	3064384.036246803335	18
0	179189	3064482.023548686408	19
0	179190	3064487.808739401432	18
0	179195	3064527.968159145499	19
0	179197	3064573.756549923254	20
0	179198	3064611.986205965966	19
0	179203	3064673.799944900003	20
0	179205	3064745.948091043076	21
0	179206	3064756.401733791696	20
0	179211	3064780.548891678799	21
0	179213	3064801.693370229324	22
0	179214	3064824.918889657784	21
0	179220	3064853.876843926279	22
0	179222	3064912.660700655748	23
0	179224	3064922.323205757827	24
0	179225	3064956.237453392948	23
0	179230	3064962.432498990674	24
0	179231	3064979.22885153733	23
0	179235	3065091.080226837796	22
0	179240	3065153.438112365542	23
0	179241	3065163.275388496559	22
0	179247	3065277.602783480089	23
0	179248	3065320.964985115661	22
0	179253	3065394.989998122328	21
0	179258	3065466.439974320024	22
0	179259	3065537.359455241487	21
0	179264	3065601.082392430611	22
0	179266	3065687.612399871267	23
0	179267	3065693.796514396568	22
0	179271	3065739.596898908233	21
0	179275	3065775.906595300799	22
0	179276	3065807.067673588649	21
0	179281	3065826.96468873501	20
0	179286	3065840.572166161021	19
0	179291	3065847.107882182222	18
0	179296	3065860.487771448675	17
0	179302	3065865.251730416747	18
0	179304	3065907.174080194121	19
0	179307	3065927.848206994578	20
0	179308	3065930.384589834809	19
0	179313	3065972.138190702406	18
0	179322	3066024.825366794832	17
0	179328	3066034.381512517332	18
0	179329	3066040.136138575737	17
0	179335	3066083.971452797338	18
0	179336	3066132.837218324848	17
0	179341	3066147.885561309748	16
0	179346	3066152.966072344874	15
0	179352	3066229.443342240752	16
0	179354	3066284.026707916693	15
0	179359	3066296.82990931894	14
0	179364	3066379.826085740061	13
0	179369	3066417.953432719092	12
0	179374	3066468.725653717265	11
0	179379	3066543.290597751245	10
0	179385	3066602.849754891983	11
0	179386	3066610.220402743606	10
0	179391	3066650.786398793634	9
0	179396	3066692.407440783204	8
0	179401	3066789.612308883785	7
0	179406	3066804.961702508329	6
0	179411	3066815.752074499466	5
0	179417	3066861.337538571382	6
0	179419	3066870.951752897495	7
0	179420	3066884.556043166626	6
0	179425	3066886.488622460652	5
0	179430	3066912.443723237822	4
0	179435	3066936.557498625039	3
0	179440	3066968.329959189179	2
0	179445	3067017.47043840794	1
0	179450	3067026.202511899221	0
0	179463	3067052.965854358565	1
0	179464	3067055.057850664924	0
0	179485	3067853.778132393507	1
0	179487	3067881.184861220713	2
0	179488	3068084.608648239661	1
0	179490	3068087.45058861805	0
0	179503	3068223.854244063024	1
0	179505	3068225.843346708154	2
0	179506	3068251.572901354224	1
0	179511	3068300.909257224446	0
0	179549	3068651.096971793698	1
0	179550	3068670.165581060642	0
0	179563	3068793.359220308191	1
0	179565	3068800.0461397421	2
0	179567	3068801.672012714024	3
0	179568	3068859.985028882294	2
0	179573	3068867.129941867892	1
0	179578	3068872.136182337245	0
0	179612	3069424.495929677126	1
0	179613	3069435.661778560965	0
0	179648	3070214.900976698579	1
0	179650	3070290.618607388475	2
0	179652	3070398.100442388339	3
0	179654	3070545.709385939746	4
0	179656	3070561.017783843384	5
0	179657	3070710.401574325421	4
0	179661	3070756.0400510088	3
0	179666	3070789.323809201891	2
0	179668	3070854.100306787152	1
0	179673	3070909.398568560732	0
0	179686	3071053.246832813053	1
0	179688	3071068.524042685593	2
0	179690	3071087.227124951236	3
0	179691	3071100.27160986851	2
0	179696	3071103.740892838853	1
0	179701	3071115.241941850061	0
0	179707	3071138.074083179934	1
0	179708	3071164.831097713086	0
0	179739	3071568.035459216404	1
0	179741	3071599.819493431961	2
0	179742	3071615.344161036334	1
0	179747	3071617.840567122062	0
0	179753	3071623.634175086008	1
0	179754	3071634.175990725021	0
0	179760	3071634.750134386358	1
0	179761	3071721.229161531202	0
0	179774	3071861.198410630205	1
0	179775	3071895.781060334465	0
0	179781	3071899.9941965101	1
0	179783	3071924.51628748763	2
0	179784	3071951.510610212228	1
0	179789	3071975.568976117189	0
0	179809	3072101.925526194914	1
0	179810	3072168.62776710132	0
0	179844	3072671.100793661233	1
0	179845	3072696.477151456251	0
0	179858	3072745.755554177943	1
0	179859	3072749.776897286942	0
0	179865	3072790.189294164057	1
0	179867	3072812.324332575809	2
0	179868	3072846.326943212302	1
0	179873	3072855.092277823817	0
0	179879	3072877.495906571946	1
0	179880	3072964.476407734863	0
0	179893	3073201.90874813958	1
0	179895	3073219.853001748424	2
0	179896	3073259.607613540233	1
0	179901	3073261.021057668374	0
0	179907	3073281.466586738234	1
0	179908	3073327.879414806229	0
0	179949	3073660.347345507234	1
0	179950	3073696.638786920787	0
0	179970	3073839.954501454766	1
0	179971	3073848.412104818033	0
0	179999	3074131.074391298862	1
0	180001	3074135.95390146626	2
0	180003	3074174.453667612571	3
0	180005	3074181.33051432582	4
0	180006	3074251.486458002093	3
0	180008	3074273.777982847059	2
0	180013	3074282.758531610394	1
0	180018	3074350.367430409124	0
0	180024	3074359.51972757592	1
0	180025	3074394.934722365082	0
0	180077	3075403.744266341216	1
0	180078	3075416.45670555018	0
0	180105	3075752.489997327214	1
0	180106	3075763.880053431721	0
0	180119	3076062.186383610753	1
0	180120	3076177.768950364813	0
0	180133	3076275.891033294681	1
0	180135	3076277.618491096402	2
0	180136	3076278.161042723024	1
0	180142	3076318.77070872674	2
0	180144	3076336.189923586205	3
0	180145	3076349.174643717204	2
0	180150	3076353.792559180113	1
0	180155	3076478.221706321464	0
0	180176	3076983.23207666949	1
0	180178	3077022.523149599579	2
0	180180	3077072.808805436706	3
0	180182	3077094.241944928467	4
0	180183	3077243.907411584997	3
0	180189	3077344.669793895935	4
0	180191	3077502.69895356159	5
0	180193	3077946.379960217719	6
0	180195	3077966.533497609288	7
0	180197	3077976.108284506908	8
0	180199	3078115.118131065121	9
0	180201	3078135.774145604017	10
0	180203	3078171.733968652266	11
0	180204	3078193.904278798164	10
0	180206	3078196.791228253014	9
0	180211	3078198.967375458223	8
0	180216	3078208.940480815102	7
0	180222	3078258.165714737541	8
0	180224	3078368.369407725688	7
0	180230	3078498.031742862488	8
0	180231	3078502.129819400887	7
0	180237	3078505.725440043853	8
0	180238	3078522.816175149826	7
0	180243	3078532.574669858718	6
0	180248	3078534.845979169296	5
0	180253	3078544.47918995025	4
0	180259	3078570.623678172069	5
0	180260	3078574.444825906381	4
0	180265	3078585.243829186725	3
0	180271	3078654.988428067987	4
0	180272	3078666.753937871009	3
0	180278	3078701.738226171345	4
0	180279	3078745.271472638267	3
0	180284	3078760.494972181116	2
0	180289	3078770.839918726868	1
0	180294	3078827.871978468935	0
0	180311	3079098.994584375295	1
0	180312	3079113.060145429112	0
0	180332	3079340.001507331348	1
0	180333	3079376.36252948836	0
0	180346	3079639.374694518181	1
0	180347	3079649.792147762812	0
0	180374	3080138.964542143529	1
0	180375	3080194.394032497585	0
0	180388	3080247.934676888109	1
0	180389	3080277.663019522484	0
0	180409	3080326.993742178895	1
0	180410	3080386.218209789005	0
0	180416	3080409.312255917528	1
0	180417	3080416.204082815425	0
0	180472	3082143.982667458948	1
0	180473	3082176.487829872353	0
0	180493	3082567.497825277763	1
0	180495	3082591.426903818698	2
0	180497	3082610.835473302343	3
0	180498	3082717.632555338083	2
0	180503	3082720.323664832776	1
0	180508	3082731.103007385972	0
0	180521	3082916.09793812951	1
0	180522	3082917.425840129872	0
0	180535	3083037.193676539244	1
0	180536	3083057.756272677737	0
0	180563	3083439.641470413788	1
0	180565	3083450.49112823444	2
0	180566	3083469.26063639951	1
0	180571	3083483.017069185086	0
0	180640	3085155.084397697453	1
0	180641	3085293.618928292934	0
0	180722	3087099.102191605489	1
0	180724	3087104.686876276135	2
0	180725	3087157.236769104551	1
0	180731	3087169.531988122827	2
0	180732	3087173.032755369766	1
0	180737	3087184.658601561317	0
0	180743	3087190.723819587255	1
0	180744	3087206.127872651286	0
0	180764	3087401.2630468386	1
0	180769	3087412.431496424191	0
0	180782	3087968.29062426537	1
0	180783	3087984.457913226308	0
0	180789	3088053.789447883712	1
0	180790	3088060.195731608099	0
0	180845	3089075.861190261167	1
0	180846	3089153.380676140074	0
0	180867	3089629.559397431619	1
0	180869	3089670.251379870775	2
0	180871	3089728.040506812986	3
0	180872	3089757.707462707595	2
0	180877	3089858.344826858724	1
0	180883	3089859.160155226739	2
0	180884	3089960.87296166403	1
0	180886	3090099.588971775787	0
0	180924	3091023.218091908501	1
0	180925	3091041.389692275487	0
0	180938	3091178.697374074819	1
0	180939	3091234.941847684824	0
0	180966	3091602.632241802852	1
0	180967	3091613.48348361952	0
0	181001	3091993.269338226973	1
0	181002	3092021.220462693771	0
0	181071	3093607.159133869947	1
0	181072	3093612.408653271925	0
0	181099	3094106.318711971168	1
0	181101	3094137.912855167236	2
0	181103	3094138.161351705817	3
0	181104	3094151.132774366809	2
0	181109	3094201.703014574935	1
0	181114	3094239.817098837304	0
0	181134	3094463.413932448393	1
0	181135	3094511.096602948278	0
0	181141	3094561.892241527062	1
0	181142	3094579.679789457184	0
0	181162	3094873.419307980005	1
0	181163	3094929.987011519722	0
0	181183	3095210.429061369803	1
0	181184	3095231.168321877356	0
0	181190	3095245.853625927568	1
0	181191	3095277.917172682572	0
0	181211	3095555.278938078167	1
0	181212	3095555.732339471778	0
0	181246	3095855.52487358507	1
0	181247	3095856.177305785755	0
0	181274	3096250.115399924163	1
0	181275	3096253.564615248024	0
0	181281	3096265.41862953955	1
0	181283	3096271.297973815149	2
0	181284	3096281.842570961024	1
0	181289	3096331.699201995288	0
0	181295	3096384.93865801069	1
0	181296	3096480.900650760301	0
0	181358	3097476.788952913252	1
0	181359	3097498.416349229448	0
0	181386	3097664.396319113815	1
0	181388	3097750.922607184485	2
0	181390	3097765.45553073444	3
0	181391	3097801.766597718488	2
0	181396	3097804.107156082655	1
0	181401	3097823.027773619131	0
0	181498	3099911.11782571699	1
0	181499	3099915.573057383799	0
0	181512	3100066.619990001784	1
0	181513	3100071.400007456152	0
0	181554	3100846.93129392569	1
0	181555	3100856.084872893275	0
0	181590	3101778.486032003272	1
0	181591	3101950.319594031516	0
0	181597	3101952.622301196362	1
0	181599	3102190.437182319888	2
0	181601	3102229.977161437618	3
0	181603	3102231.641228234137	4
0	181605	3102491.489159264182	5
0	181607	3102506.333789569692	6
0	181609	3102506.933767983249	7
0	181611	3102550.529271834244	8
0	181613	3102606.508868290813	9
0	181615	3102623.071738782057	10
0	181616	3102699.990424255603	9
0	181618	3102703.928099803652	8
0	181624	3102746.052661534634	9
0	181630	3102812.251334146007	10
0	181631	3102838.065711431874	9
0	181636	3102838.64392612301	8
0	181641	3102847.350171650517	7
0	181646	3102870.792863761054	6
0	181651	3103058.269025044566	5
0	181657	3103096.177749529381	6
0	181658	3103178.877691801689	5
0	181664	3103238.257374277188	6
0	181666	3103240.755815613586	7
0	181667	3103262.832565021437	6
0	181672	3103287.977019604192	5
0	181677	3103290.431528672871	4
0	181682	3103296.651110489767	3
0	181688	3103298.295225476445	4
0	181689	3103315.540567026648	3
0	181695	3103575.507481192054	2
0	181701	3103625.311256049101	3
0	181702	3103660.103956512465	2
0	181706	3103660.53677249234	3
0	181710	3103689.453805852743	4
0	181712	3103712.412201723198	5
0	181713	3103717.433232161351	4
0	181718	3103859.062848376291	5
0	181720	3103899.626671606305	6
0	181722	3103916.726650444515	7
0	181724	3104072.019466228738	8
0	181726	3104116.039594555956	9
0	181727	3104170.578149462996	8
0	181731	3104219.64592033826	7
0	181737	3104272.471703777313	8
0	181739	3104345.661627520219	9
0	181741	3104348.020996920143	10
0	181743	3104373.66313301126	11
0	181744	3104431.831996816102	10
0	181749	3104491.733063535177	9
0	181755	3104571.280174858395	10
0	181757	3104642.985093068557	11
0	181758	3104648.627693211087	10
0	181760	3104665.435967960087	9
0	181765	3104731.930022249279	8
0	181770	3104738.921137781837	7
0	181775	3104789.556308496374	6