version 2
run Simulations-40-20191218-11:09:19-65753
attr configname Simulations
attr datetime 20191218-11:09:19
attr experiment Simulations
attr inifile omnetpp.ini
attr iterationvars "$seed=25, $0=8000"
attr iterationvarsf seed=25,8000-
attr measurement "$seed=25, $0=8000"
attr network WifiCelNetPassiveQueue
attr processid 65753
attr repetition 0
attr replication #0
attr resultdir results/Simulations/omnet
attr runnumber 40
attr seedset 25
itervar seed 25
param **.numJobs 10000
param *.OFFLOAD.deadline exponential(8000s)
param *.source.interArrivalTime exponential(120s)
param *.WIFI.serviceTime exponential(40s)
param *.CELL.serviceTime exponential(400s)
param *.OFFLOAD.switchToWi exponential(1524s)
param *.OFFLOAD.switchToCel exponential(3120s)
param *.LOCAL.serviceTime exponential(5s)
param *.REMOTE.serviceTime exponential(1s)

vector 0 WifiCelNetPassiveQueue.OFFLOAD queueLength:vector ETV
attr interpolationmode sample-hold
attr title "queue length, vector"
vector 1 WifiCelNetPassiveQueue.WIFI serviceTime:vector ETV
attr interpolationmode none
attr title "wifi Service, vector"
attr unit s
vector 2 WifiCelNetPassiveQueue.WIFI responseTime:vector ETV
attr interpolationmode none
attr title "Response Time, vector"
attr unit s
vector 3 WifiCelNetPassiveQueue.REMOTE serviceTime:vector ETV
attr interpolationmode none
attr title "wifi Service, vector"
attr unit s
vector 4 WifiCelNetPassiveQueue.REMOTE responseTime:vector ETV
attr interpolationmode none
attr title "Response Time, vector"
attr unit s
vector 5 WifiCelNetPassiveQueue.sink lifeTime:vector ETV
attr interpolationmode none
attr title "lifetime of arrived jobs, vector"
attr unit s
vector 6 WifiCelNetPassiveQueue.OFFLOAD storeCelTime:vector ETV
attr interpolationmode none
attr title "Time in Cell, vector"
attr unit s
vector 7 WifiCelNetPassiveQueue.CELL serviceTime:vector ETV
attr interpolationmode none
attr title "wifi Service, vector"
attr unit s
vector 8 WifiCelNetPassiveQueue.CELL responseTime:vector ETV
attr interpolationmode none
attr title "Response Time, vector"
attr unit s
vector 9 WifiCelNetPassiveQueue.OFFLOAD storeDeadline:vector ETV
attr interpolationmode none
attr title "deadline, vector"
attr unit s
vector 10 WifiCelNetPassiveQueue.OFFLOAD storeWifiTime:vector ETV
attr interpolationmode none
attr title "Time in Wifi, vector"
attr unit s
vector 11 WifiCelNetPassiveQueue.LOCAL serviceTime:vector ETV
attr interpolationmode none
attr title "wifi Service, vector"
attr unit s
vector 12 WifiCelNetPassiveQueue.LOCAL responseTime:vector ETV
attr interpolationmode none
attr title "Response Time, vector"
attr unit s
vector 13 WifiCelNetPassiveQueue.REMOTE queueLength:vector ETV
attr interpolationmode sample-hold
attr title "queue length, vector"
vector 14 WifiCelNetPassiveQueue.LOCAL queueLength:vector ETV
attr interpolationmode sample-hold
attr title "queue length, vector"
0	175334	3000035.035735206039	1
0	175335	3000042.238732282919	0
0	175369	3000285.767872310943	1
0	175370	3000317.06642438005	0
0	175398	3001116.055087533272	1
0	175400	3001128.382818528494	2
0	175402	3001153.529988574392	3
0	175404	3001201.344172474421	4
0	175405	3001229.152514401335	3
0	175410	3001405.662732926057	2
0	175412	3001430.204357632251	1
0	175417	3001511.422746649591	0
0	175462	3002145.845505336505	1
0	175463	3002173.93076612472	0
0	175497	3003032.452661151798	1
0	175499	3003058.653870870774	2
0	175500	3003150.809205786748	1
0	175506	3003178.576562245369	2
0	175507	3003191.089328822418	1
0	175513	3003196.429662490263	2
0	175514	3003252.334429559398	1
0	175519	3003257.791534667612	0
0	175567	3004648.121413886479	1
0	175568	3004802.419888821052	0
0	175581	3005033.340502449138	1
0	175582	3005037.582480262866	0
0	175588	3005051.262143189218	1
0	175589	3005072.503966475701	0
0	175616	3005456.605586084927	1
0	175617	3005460.797692149556	0
0	175679	3006659.086817852177	1
0	175680	3006661.072794637271	0
0	175714	3007100.42402567567	1
0	175716	3007119.479957983512	2
0	175717	3007137.6902253751	1
0	175722	3007145.5644277115	0
0	175742	3007336.736372456493	1
0	175743	3007343.642734646557	0
0	175749	3007425.4854951401	1
0	175750	3007458.231299953831	0
0	175756	3007522.259452085324	1
0	175757	3007539.80709807648	0
0	175777	3007721.908300190325	1
0	175778	3007779.852157751722	0
0	175805	3008148.616028799343	1
0	175806	3008149.425215075873	0
0	175826	3008369.009728922122	1
0	175828	3008513.015868125594	2
0	175829	3008547.305555493372	1
0	175834	3008558.047737198519	0
0	175896	3009659.869299885856	1
0	175897	3009669.108811865546	0
0	175903	3009738.91628712269	1
0	175904	3009752.087792375716	0
0	175952	3010815.778358386615	1
0	175953	3010838.289880555609	0
0	175966	3010990.743039389029	1
0	175967	3011033.218901224296	0
0	175980	3011108.494756203474	1
0	175981	3011189.139117797554	0
0	175994	3011251.376568422897	1
0	175995	3011301.563992546037	0
0	176029	3011815.883428663068	1
0	176030	3011835.529733765314	0
0	176043	3012528.048595531292	1
0	176044	3012536.445783017466	0
0	176058	3012637.430545042595	1
0	176060	3012812.671487836272	2
0	176062	3013158.556844390322	3
0	176064	3013161.929288265655	4
0	176066	3013254.996946424375	5
0	176068	3013408.923102551481	6
0	176070	3013424.218358574203	7
0	176071	3013656.804860246433	6
0	176077	3013711.568240678304	7
0	176079	3013842.130784757347	8
0	176081	3013843.487987722302	9
0	176082	3013867.746926265525	8
0	176088	3013999.126221024145	9
0	176089	3014182.408527112073	8
0	176094	3014247.150765358459	9
0	176095	3014293.929548142291	8
0	176100	3014372.449776394208	7
0	176106	3014403.167567055641	8
0	176107	3014521.223617291105	7
0	176112	3014534.396619308752	6
0	176117	3014675.422540424502	7
0	176119	3014676.93355051256	8
0	176121	3014920.520871772943	9
0	176123	3014978.907050813065	10
0	176125	3015102.029886689929	11
0	176127	3015295.864174017197	12
0	176129	3015546.192330478677	13
0	176131	3015606.147971953013	14
0	176133	3015840.143548696288	15
0	176135	3015875.072236903332	16
0	176137	3015877.263736703007	17
0	176138	3016073.58403251794	16
0	176143	3016093.931641700121	17
0	176144	3016137.381574750108	16
0	176148	3016144.133105612534	15
0	176153	3016229.351189283851	16
0	176155	3016370.885681958225	17
0	176157	3016464.479179591713	18
0	176159	3016503.28375811529	19
0	176160	3016608.666500794764	18
0	176163	3016638.138586465762	19
0	176165	3016638.875102639548	20
0	176166	3016687.552524040709	19
0	176172	3016709.250537476614	20
0	176177	3016719.190756585405	19
0	176182	3016760.904280913446	18
0	176187	3016842.922254441427	17
0	176192	3016848.201270983457	16
0	176197	3016867.583256450941	15
0	176202	3016877.867171463711	14
0	176208	3016886.676300086773	15
0	176209	3016890.994731480617	14
0	176214	3016903.698585912715	13
0	176219	3016924.236229744371	12
0	176225	3016968.76060545621	13
0	176227	3016971.251834518433	14
0	176228	3016975.383113321714	13
0	176234	3017012.838109540724	14
0	176236	3017034.326796787993	15
0	176238	3017071.973248350582	16
0	176239	3017090.821650209679	15
0	176244	3017160.591764612332	14
0	176251	3017190.855746019833	15
0	176253	3017206.331160274481	16
0	176254	3017216.886546131559	15
0	176260	3017233.01179537741	16
0	176261	3017238.764482467198	15
0	176267	3017361.527687527239	14
0	176270	3017361.771211496347	15
0	176275	3017387.127293547284	14
0	176280	3017454.639076890838	13
0	176285	3017461.313511204254	12
0	176290	3017461.49640157467	11
0	176296	3017481.853072358161	12
0	176297	3017544.994700420196	11
0	176302	3017573.326704261415	10
0	176307	3017613.325573861051	9
0	176313	3017680.303739986269	10
0	176314	3017758.29997925852	9
0	176319	3017863.413943357502	8
0	176324	3017870.949227289082	7
0	176329	3017874.456874890238	6
0	176332	3017875.901717403851	5
0	176339	3017899.939987572446	4
0	176345	3017909.343741257855	5
0	176346	3017920.446730495675	4
0	176351	3017935.32975824452	3
0	176356	3017941.273326049176	2
0	176362	3017971.442865921936	3
0	176363	3017971.619977362875	2
0	176369	3017980.548982611612	3
0	176370	3017980.792275302746	2
0	176376	3017993.704916395654	3
0	176377	3017998.951434202895	2
0	176382	3018020.093554574102	1
0	176387	3018109.87444944996	0
0	176421	3019367.466828377754	1
0	176422	3019390.535466710711	0
0	176457	3020413.480288538321	1
0	176459	3020575.051461072247	2
0	176461	3020698.236475768837	3
0	176463	3020775.344243804224	4
0	176464	3020828.385776507185	3
0	176469	3020873.696938344728	2
0	176475	3020885.447260516961	3
0	176476	3020901.657123407758	2
0	176479	3020906.56228843258	3
0	176480	3020917.817200313821	2
0	176485	3020925.356331746839	1
0	176490	3020931.238558539031	0
0	176503	3021184.970280988785	1
0	176504	3021243.316943365089	0
0	176524	3021375.137732864006	1
0	176525	3021384.86488608366	0
0	176559	3021663.442406889929	1
0	176560	3021666.246622626823	0
0	176584	3021767.245420006431	1
0	176585	3021778.779443238529	0
0	176605	3021902.480307919128	1
0	176606	3021912.610806741138	0
0	176626	3022368.460134748673	1
0	176627	3022416.313732746974	0
0	176633	3022418.095407977444	1
0	176635	3022420.264237112189	2
0	176637	3022455.657428494301	3
0	176638	3022470.723575596913	2
0	176643	3022511.836171278037	1
0	176648	3022514.713875696742	0
0	176668	3022883.839462647355	1
0	176669	3022891.522550370388	0
0	176689	3023015.278601915781	1
0	176690	3023022.977241084208	0
0	176738	3024331.597075149631	1
0	176739	3024428.355838899731	0
0	176766	3024764.36634292271	1
0	176768	3024786.048782752445	2
0	176769	3024811.364715893778	1
0	176774	3024838.955471568001	0
0	176794	3024926.121959790908	1
0	176795	3024932.007289861195	0
0	176815	3025316.708890356175	1
0	176816	3025444.898008833181	0
0	176829	3025676.500162813208	1
0	176831	3025676.82381114926	2
0	176832	3025722.132790934215	1
0	176837	3025796.244718297552	0
0	176871	3026019.900865079101	1
0	176872	3026020.540875495925	0
0	176913	3026417.61471153612	1
0	176915	3026429.470775390185	2
0	176916	3026441.746970257294	1
0	176921	3026465.527834386364	0
0	177011	3027547.016181617482	1
0	177012	3027554.341281266607	0
0	177025	3027660.281793827519	1
0	177026	3027692.673590274932	0
0	177039	3028032.605777159611	1
0	177041	3028037.248443376085	2
0	177042	3028045.561854539617	1
0	177047	3028080.791515225642	0
0	177067	3028319.165120875163	1
0	177068	3028321.693926591557	0
0	177102	3029070.692581313977	1
0	177103	3029129.933865397541	0
0	177123	3029330.377000099727	1
0	177124	3029369.622291845023	0
0	177137	3029483.966556064004	1
0	177138	3029526.46313079256	0
0	177158	3029701.112666921811	1
0	177159	3029770.282179574584	0
0	177165	3029806.756903331728	1
0	177166	3029833.860442776905	0
0	177172	3029879.458404596146	1
0	177173	3029886.207103697265	0
0	177179	3029889.654566508352	1
0	177180	3029929.414084038779	0
0	177221	3030852.486797585193	1
0	177222	3030863.595636221188	0
0	177236	3030975.713592045406	1
0	177237	3031037.822388813174	0
0	177243	3031074.304663683186	1
0	177245	3031140.531829110563	2
0	177246	3031206.432185251046	1
0	177251	3031213.528133666136	0
0	177257	3031263.529020184505	1
0	177259	3031330.109812515216	2
0	177261	3031560.709172883562	3
0	177262	3031581.313904143779	2
0	177268	3031592.819199000491	3
0	177270	3031659.901045780166	4
0	177272	3031874.44823512301	5
0	177273	3032062.462091802697	4
0	177279	3032082.590382522979	5
0	177280	3032161.973622729135	4
0	177283	3032251.569635601547	5
0	177285	3032388.922021814883	6
0	177286	3032417.113669921818	5
0	177295	3032490.134475119623	4
0	177300	3032499.289895319515	3
0	177305	3032542.549051365785	2
0	177308	3032545.13789967306	1
0	177315	3032552.669047322597	0
0	177328	3032933.634532996018	1
0	177329	3032947.770202563593	0
0	177343	3033430.795024044039	1
0	177345	3033433.703190113746	2
0	177346	3033486.080643241217	1
0	177348	3033514.541578812357	0
0	177372	3033677.148352647474	1
0	177373	3033730.505229911478	0
0	177393	3034325.880041452246	1
0	177394	3034338.982719309219	0
0	177407	3034466.345203921345	1
0	177408	3034475.718258845155	0
0	177428	3034725.123780904875	1
0	177429	3034748.971875486052	0
0	177449	3035067.57663490753	1
0	177450	3035123.545803838205	0
0	177471	3036003.76109769846	1
0	177472	3036050.604808380362	0
0	177485	3036520.882920656435	1
0	177487	3036523.36681228656	2
0	177488	3036627.406232771489	1
0	177491	3036638.092453045167	2
0	177495	3037013.974685082365	3
0	177496	3037048.271217325326	2
0	177499	3037052.226047062345	3
0	177502	3037271.297853938444	2
0	177505	3037303.028717624112	3
0	177506	3037384.313495349637	2
0	177511	3037419.594091086617	1
0	177517	3037435.76377705883	2
0	177518	3037475.487256212407	1
0	177523	3037494.937497162544	0
0	177571	3038836.809167820642	1
0	177572	3038861.041128023191	0
0	177578	3038969.075200488062	1
0	177580	3038981.138849962989	2
0	177581	3038993.008591896699	1
0	177586	3039009.46074819099	0
0	177597	3039149.524018379214	1
0	177598	3039175.892169498738	0
0	177611	3039485.80835208306	1
0	177613	3039650.637449912013	2
0	177615	3039889.448139726746	3
0	177617	3039892.363986231411	4
0	177619	3040048.987757087368	5
0	177620	3040289.921953406656	4
0	177626	3040508.866971354322	5
0	177627	3040586.441696616693	4
0	177633	3040691.858823709438	5
0	177635	3040820.870421008012	6
0	177637	3040869.121037456995	7
0	177638	3041146.555428603069	6
0	177644	3041324.509873742431	7
0	177645	3041438.483358197111	6
0	177651	3041474.024009672744	7
0	177652	3041478.058962108638	6
0	177658	3041492.894283664548	7
0	177660	3041605.221674470556	8
0	177661	3041626.166712128366	7
0	177667	3041679.433499214061	8
0	177669	3041751.302780377001	9
0	177671	3041773.030359710298	10
0	177672	3041892.388126593588	9
0	177678	3041950.466008123866	10
0	177679	3041986.222850294922	9
0	177684	3042110.230950522465	10
0	177686	3042209.783255396558	11
0	177688	3042216.719295457486	12
0	177690	3042244.534715311338	13
0	177691	3042285.031300106358	12
0	177696	3042323.438493280883	11
0	177702	3042406.175066686156	12
0	177703	3042428.65935106857	11
0	177708	3042503.850022330898	10
0	177713	3042537.337216391147	9
0	177718	3042539.343998661214	8
0	177723	3042572.557933190257	7
0	177729	3042614.170544969511	6
0	177734	3042615.13795793031	5
0	177739	3042653.639796734076	4
0	177744	3042727.205668216588	3
0	177746	3042768.755741231426	2
0	177756	3043006.219165767102	3
0	177758	3043047.93861966418	4
0	177760	3043070.097983104199	5
0	177762	3043102.169541675717	6
0	177763	3043112.82138927627	5
0	177769	3043188.719166896576	6
0	177770	3043220.561877015745	5
0	177772	3043238.391207781161	4
0	177777	3043270.708182030129	3
0	177782	3043296.590728836929	2
0	177788	3043316.32738191436	3
0	177789	3043325.042791229475	2
0	177798	3043418.824240009591	1
0	177803	3043472.297784187635	0
0	177810	3043554.710375906038	1
0	177811	3043584.009831192658	0
0	177818	3043716.011497128709	1
0	177819	3043784.939690617772	0
0	177895	3045901.729740636252	1
0	177896	3045922.985588450058	0
0	177902	3045978.730357861475	1
0	177904	3046019.275233257221	2
0	177906	3046019.866398865267	3
0	177907	3046041.010324919974	2
0	177912	3046048.442891620746	1
0	177917	3046054.443399763577	0
0	177931	3046690.337596948908	1
0	177933	3046748.934712389945	2
0	177934	3046821.09716136258	1
0	177939	3046872.442455758516	2
0	177941	3046907.375551528313	3
0	177942	3046915.856539217407	2
0	177948	3047045.048358279118	3
0	177950	3047173.270255321771	4
0	177951	3047207.011900238197	3
0	177957	3047298.982532023132	4
0	177959	3047329.186654222747	5
0	177961	3047477.081320704409	6
0	177963	3047513.808096078488	7
0	177964	3047516.538788358401	6
0	177969	3047678.447603840765	7
0	177970	3047688.416094373856	6
0	177975	3047738.781658170725	5
0	177980	3047954.600254494329	6
0	177982	3048278.339429751578	7
0	177983	3048293.933285962677	6
0	177988	3048356.135052609232	7
0	177990	3048419.042684491147	8
0	177992	3048423.442355640789	9
0	177993	3048454.698598188542	8
0	177998	3048607.56382686217	9
0	178000	3048675.312184718552	10
0	178002	3048899.991410373894	11
0	178003	3049062.430898643348	10
0	178005	3049120.797272701246	9
0	178009	3049123.491626435929	10
0	178012	3049132.393142242876	9
0	178017	3049223.378195668347	8
0	178022	3049278.63843644196	7
0	178027	3049333.794161898029	6
0	178032	3049362.699574241011	5
0	178038	3049371.697075134142	6
0	178040	3049374.270621466921	7
0	178041	3049383.441769256765	6
0	178047	3049438.185535975591	7
0	178049	3049438.60108347037	8
0	178055	3049628.341536548157	7
0	178060	3049681.673810540846	6
0	178066	3049685.085399622945	7
0	178067	3049757.092474390668	6
0	178073	3049834.997662279054	7
0	178074	3050035.61771135339	6
0	178079	3050080.902244534489	5
0	178084	3050082.870032601798	4
0	178090	3050089.54357484972	5
0	178091	3050130.449916618892	4
0	178096	3050150.615625902988	3
0	178102	3050170.7496666632	4
0	178103	3050190.717863275376	3
0	178109	3050191.837269511254	4
0	178110	3050283.78891230428	3
0	178115	3050302.319439532879	2
0	178121	3050305.856737117658	3
0	178123	3050357.911570675561	4
0	178124	3050382.684475399005	3
0	178129	3050400.660014120245	2
0	178134	3050414.349114934864	1
0	178139	3050438.076482510997	0
0	178166	3050602.758271281653	1
0	178167	3050621.34309072337	0
0	178188	3051460.379871827366	1
0	178190	3051474.697205520934	2
0	178192	3051485.171538956114	3
0	178194	3051524.508804083983	4
0	178196	3051549.865300041118	5
0	178198	3051588.188810863188	6
0	178200	3051664.945255861738	7
0	178201	3051779.547099450115	6
0	178206	3051804.267077638073	5
0	178211	3051837.655944754375	4
0	178217	3051905.354509190713	5
0	178219	3051939.933814832243	6
0	178221	3051979.997866650004	7
0	178223	3051983.324283181158	8
0	178224	3052158.275847818055	7
0	178226	3052191.767180567617	6
0	178231	3052222.80944131229	5
0	178236	3052275.074304712986	4
0	178241	3052315.072834684577	3
0	178247	3052318.38155097022	4
0	178248	3052326.042580224993	3
0	178253	3052347.156978859749	2
0	178258	3052373.351772371949	1
0	178264	3052411.710488247698	2
0	178265	3052412.274720272698	1
0	178270	3052434.058053056948	0
0	178304	3052917.224925120009	1
0	178306	3052922.282206347249	2
0	178307	3052949.87645516382	1
0	178312	3052955.763763434766	0
0	178336	3053135.3168531533	1
0	178338	3053216.741875687479	2
0	178339	3053228.878492583168	1
0	178344	3053280.851973746189	0
0	178392	3053985.296754132982	1
0	178393	3053989.280943914369	0
0	178483	3056197.119649102811	1
0	178485	3056220.498977729736	2
0	178486	3056246.645714910857	1
0	178491	3056302.005922856098	0
0	178532	3056750.368006191916	1
0	178534	3056773.725139401001	2
0	178536	3056814.140000499255	3
0	178537	3056865.819543977027	2
0	178542	3056874.676277748381	1
0	178549	3056957.338772521846	2
0	178550	3056973.074371971746	1
0	178553	3057090.515880724899	2
0	178554	3057104.824578035211	1
0	178559	3057200.156902326553	0
0	178576	3057268.86193447443	1
0	178577	3057293.75017506804	0
0	178605	3057886.981310891592	1
0	178606	3057887.479374887696	0
0	178711	3059345.858232707775	1
0	178713	3059385.997900507133	2
0	178714	3059389.92776801749	1
0	178719	3059403.901884609948	0
0	178746	3059858.20380073232	1
0	178747	3059859.377308332303	0
0	178775	3060946.790260674799	1
0	178777	3060949.694814831685	2
0	178779	3060954.857789488681	3
0	178781	3061001.763416643025	4
0	178782	3061093.652855296055	3
0	178784	3061116.015993254335	2
0	178790	3061126.43680450252	3
0	178791	3061159.753292827949	2
0	178797	3061251.299930471229	3
0	178798	3061256.95816092853	2
0	178803	3061260.537543308531	1
0	178809	3061282.183013567442	2
0	178810	3061318.197314617303	1
0	178815	3061377.589282270826	0
0	178839	3061655.654409301379	1
0	178840	3061661.841967570858	0
0	178853	3061838.515069065103	1
0	178855	3061842.353267565604	2
0	178856	3061852.585212968528	1
0	178861	3061859.277409574511	0
0	178867	3061860.143851986183	1
0	178868	3061915.183631578944	0
0	178888	3062523.817647607503	1
0	178889	3062553.458770991064	0
0	178923	3063064.976562137622	1
0	178925	3063104.829187941064	2
0	178927	3063144.613595322338	3
0	178929	3063158.926197949254	4
0	178930	3063162.012056740219	3
0	178935	3063183.770094753356	2
0	178940	3063206.866929650547	1
0	178943	3063208.136184800498	0
0	178965	3063638.313896260743	1
0	178967	3063645.000815694652	2
0	178969	3063646.626688666576	3
0	178970	3063704.939704834846	2
0	178975	3063712.084617820444	1
0	178980	3063717.090858289797	0
0	179014	3064269.450605629678	1
0	179015	3064280.616454513517	0
0	179063	3065167.034999198486	1
0	179064	3065183.095340151751	0
0	179091	3065608.018542242789	1
0	179093	3065645.979180421884	2
0	179095	3065657.46750942839	3
0	179096	3065657.824310380047	2
0	179102	3065678.106452566107	3
0	179104	3065693.383662438647	4
0	179106	3065712.08674470429	5
0	179107	3065732.074569682146	4
0	179112	3065735.543852652489	3
0	179117	3065747.044901663697	2
0	179123	3065762.933702932988	3
0	179124	3065796.634057526722	2
0	179129	3065835.790053852344	1
0	179134	3065869.378764873826	0
0	179154	3066092.128945905011	1
0	179156	3066123.912980120568	2
0	179157	3066139.437647724941	1
0	179162	3066141.934053810669	0
0	179168	3066147.727661774615	1
0	179169	3066158.269477413628	0
0	179175	3066158.843621074965	1
0	179176	3066245.322648219809	0
0	179189	3066385.291897318812	1
0	179190	3066419.874547023072	0
0	179196	3066424.087683198707	1
0	179198	3066448.609774176237	2
0	179199	3066475.604096900835	1
0	179204	3066499.662462805796	0
0	179224	3066626.019012883521	1
0	179225	3066692.721253789927	0
0	179259	3067195.19428034984	1
0	179260	3067220.570638144858	0
0	179273	3067269.84904086655	1
0	179274	3067273.870383975549	0
0	179280	3067314.282780852664	1
0	179282	3067336.417819264416	2
0	179283	3067370.420429900909	1
0	179288	3067379.185764512424	0
0	179294	3067401.589393260553	1
0	179295	3067488.56989442347	0
0	179308	3067726.002234828187	1
0	179310	3067743.946488437031	2
0	179311	3067783.70110022884	1
0	179316	3067785.114544356981	0
0	179322	3067805.560073426841	1
0	179323	3067814.335230960419	0
0	179330	3067916.775256599309	1
0	179332	3067926.527862399324	2
0	179333	3068072.089794421754	1
0	179338	3068102.531633100522	0
0	179344	3068181.962473243218	1
0	179346	3068220.122984678182	2
0	179348	3068304.691760747665	3
0	179350	3068342.097249071656	4
0	179352	3068415.035160354697	5
0	179354	3068511.977003882145	6
0	179356	3068582.708025138216	7
0	179358	3068586.10686586778	8
0	179360	3068719.29434618284	9
0	179361	3068837.377292354586	8
0	179367	3068918.547593729527	9
0	179369	3068935.09990933836	10
0	179370	3069070.859030944246	9
0	179376	3069166.631858069553	10
0	179377	3069206.777324237159	9
0	179383	3069270.799480615521	10
0	179384	3069283.267931584319	9
0	179390	3069309.299246761832	10
0	179391	3069480.238257848398	9
0	179397	3069487.488460011932	10
0	179399	3069548.984592676691	11
0	179400	3069640.35120207841	10
0	179404	3069703.153506298062	9
0	179410	3069719.068108388365	10
0	179412	3069859.604074317451	11
0	179414	3070231.75601118287	12
0	179415	3070300.275052382539	11
0	179420	3070398.478665962211	10
0	179425	3070457.644685711976	11
0	179427	3070824.055754307212	12
0	179429	3070874.090103281073	13
0	179431	3070985.269242348919	14
0	179433	3071008.609889290614	15
0	179435	3071128.751720269267	16
0	179437	3071146.616024793632	17
0	179438	3071160.661106249639	16
0	179443	3071214.724193034555	17
0	179445	3071243.366798090774	18
0	179447	3071249.309701424293	19
0	179448	3071280.175523785631	18
0	179452	3071283.598212678934	17
0	179457	3071303.84428336744	18
0	179458	3071442.694884189676	17
0	179462	3071481.892327597895	16
0	179466	3071518.936212515676	15
0	179472	3071527.421506855634	16
0	179473	3071537.130141860177	15
0	179478	3071715.69544390575	14
0	179483	3071843.933723498956	13
0	179487	3071888.278461997098	12
0	179493	3071890.543743527863	13
0	179495	3072005.836521070733	14
0	179496	3072022.811214371324	13
0	179499	3072023.255735930198	14
0	179502	3072027.429129834233	13
0	179507	3072028.722880184797	12
0	179515	3072053.53829014832	13
0	179516	3072152.574336832517	12
0	179521	3072187.305506649904	11
0	179526	3072217.030174076447	10
0	179531	3072235.705087779493	9
0	179536	3072363.679335290317	8
0	179542	3072383.629581441248	9
0	179543	3072416.165106425238	8
0	179548	3072468.188812977729	7
0	179555	3072634.057430408716	8
0	179556	3072994.952678529912	7
0	179562	3073077.738437064845	8
0	179564	3073087.313223962465	9
0	179566	3073226.323070520678	10
0	179568	3073246.979085059574	11
0	179570	3073282.938908107823	12
0	179572	3073369.370654193098	13
0	179573	3073516.135144117199	12
0	179578	3073537.896616169287	11
0	179583	3073584.001927507239	10
0	179587	3073637.627669738076	9
0	179593	3073665.919550340877	10
0	179595	3073793.824421877415	11
0	179597	3073801.51811905878	12
0	179599	3073863.577186305598	13
0	179601	3073877.819146288228	14
0	179603	3073918.786488876651	15
0	179604	3073946.760545163041	14
0	179608	3074122.97142262746	13
0	179613	3074132.986470121227	14
0	179614	3074215.084162704594	13
0	179619	3074217.351220017145	14
0	179621	3074301.965388874232	15
0	179622	3074332.081008403754	14
0	179627	3074348.71518697759	15
0	179628	3074437.181096821234	14
0	179633	3074566.8927958661	13
0	179638	3074575.90232725941	12
0	179644	3074679.062061473962	13
0	179645	3074806.333002903061	12
0	179651	3074917.664122357177	13
0	179652	3074926.643220585111	12
0	179657	3074956.52950151462	13
0	179659	3074966.947676928537	14
0	179661	3075139.087250837802	15
0	179663	3075301.088776436043	16
0	179665	3075531.043783020918	17
0	179667	3075572.604948611436	18
0	179669	3075582.58561237294	19
0	179670	3075616.083450517008	18
0	179675	3075815.276128084011	17
0	179680	3075831.928607175596	18
0	179681	3075845.428645067458	17
0	179685	3075948.837041919775	16
0	179690	3075964.230089330869	15
0	179696	3076039.743201931891	16
0	179697	3076061.830921188024	15
0	179701	3076198.433649073404	14
0	179707	3076416.814876762338	15
0	179709	3076422.237987661325	16
0	179711	3076458.22162403068	17
0	179713	3076461.16674982658	18
0	179715	3076495.036732869396	19
0	179717	3076531.692145473143	20
0	179718	3076591.196271395669	19
0	179723	3076736.981885939318	20
0	179724	3076746.286849194121	19
0	179729	3076822.777611835542	18
0	179732	3076826.939505018577	19
0	179736	3077033.952635983188	20
0	179737	3077108.733124777045	19
0	179742	3077222.232660064011	20
0	179744	3077274.274946802674	21
0	179746	3077382.299794256167	22
0	179748	3077521.47972907062	23
0	179750	3077690.848341429833	24
0	179752	3077753.945006964432	25
0	179753	3077824.212966180903	24
0	179758	3077825.130364478699	23
0	179762	3077950.582951696416	22
0	179767	3078086.543645090262	21
0	179773	3078230.776168910819	22
0	179774	3078255.966839514083	21
0	179778	3078294.490387493617	20
0	179784	3078569.07183229746	21
0	179786	3078593.000910838395	22
0	179787	3078618.711377160497	21
0	179791	3078652.857588792868	20
0	179796	3078851.034816735812	21
0	179798	3078883.372844395399	22
0	179800	3078939.837991560965	23
0	179802	3078987.066550490715	24
0	179804	3079104.096186871358	25
0	179805	3079226.372568100547	24
0	179810	3079249.754092705786	25
0	179811	3079306.095672662809	24
0	179813	3079313.902042493467	23
0	179819	3079323.640187208539	24
0	179820	3079359.718803186786	23
0	179825	3079412.093315469067	22
0	179831	3079420.882183376484	23
0	179832	3079429.722527952278	22
0	179837	3079433.339080559162	21
0	179843	3079456.858148035718	22
0	179844	3079473.36458956393	21
0	179850	3079498.127446392446	22
0	179851	3079500.622966915434	21
0	179856	3079529.883964419018	20
0	179861	3079554.609526931564	19
0	179866	3079576.31441880672	18
0	179871	3079578.294709981564	17
0	179876	3079677.883122519576	16
0	179881	3079710.530517154576	15
0	179886	3079804.626827821651	14
0	179892	3079824.150044354699	15
0	179894	3079864.624927306828	14
0	179899	3079941.445405407402	13
0	179908	3080001.530851596261	12
0	179913	3080007.044017791346	11
0	179919	3080179.975504980955	10
0	179924	3080210.655013311621	9
0	179928	3080210.834861181733	10
0	179931	3080283.992259801539	9
0	179937	3080312.562298198961	10
0	179938	3080325.579668809814	9
0	179944	3080360.112688698409	10
0	179945	3080386.974853250072	9
0	179951	3080409.375846492174	10
0	179952	3080432.873447823232	9
0	179957	3080463.721978216996	8
0	179962	3080473.588381986837	7
0	179968	3080505.380736001744	8
0	179969	3080515.571186501921	7
0	179975	3080612.436216360326	6
0	179981	3080641.3273767683	7
0	179983	3080813.450692052991	8
0	179985	3080822.58104729051	9
0	179987	3080855.820164886374	10
0	179988	3081029.67584577938	9
0	179994	3081156.872985359455	10
0	179995	3081238.684782173144	9
0	180001	3081519.384760611028	10
0	180002	3081529.185296735824	9
0	180007	3081566.772719406672	10
0	180009	3081601.650257981326	11
0	180010	3081620.452108217463	10
0	180014	3081624.703368860161	9
0	180020	3081666.058071251233	10
0	180022	3081714.145577047709	11
0	180023	3081752.009611141741	10
0	180026	3081762.693893489838	11
0	180028	3081935.534112855014	12
0	180029	3081939.407637343314	11
0	180035	3081942.614748622721	12
0	180036	3081945.273687444292	11
0	180042	3081947.448247444773	12
0	180043	3081973.773295317073	11
0	180049	3082012.1338154902	12
0	180051	3082013.298312113733	13
0	180052	3082016.095283371135	12
0	180058	3082049.23458172	13
0	180059	3082062.036523337029	12
0	180064	3082100.403105850153	11
0	180070	3082183.484400223553	12
0	180071	3082263.365523768521	11
0	180076	3082317.461454667448	10
0	180082	3082348.905125391741	11
0	180083	3082467.465989350642	10
0	180088	3082512.448079023891	9
0	180093	3082536.49629465546	8
0	180099	3082559.867265510936	9
0	180101	3082560.350231275291	10
0	180102	3082607.284069988757	9
0	180107	3082625.41582739706	8
0	180112	3082657.783471554258	7
0	180117	3082663.297137391741	6
0	180122	3082674.666494604194	5
0	180127	3082696.741100217106	4
0	180132	3082732.559784157929	3
0	180137	3082739.382576551043	2
0	180142	3082751.889986918415	1
0	180147	3082761.953723333528	0
0	180153	3082794.357586205077	1
0	180154	3082806.888078961517	0
0	180171	3083264.758861737335	1
0	180172	3083369.593381226044	0
0	180199	3084025.907125041288	1
0	180200	3084044.078725408274	0
0	180213	3084181.386407207606	1
0	180214	3084237.630880817611	0
0	180241	3084605.321274935639	1
0	180242	3084616.172516752307	0
0	180276	3084995.95837135976	1
0	180277	3085023.909495826558	0