version 2
run Simulations-44-20191218-11:09:20-65753
attr configname Simulations
attr datetime 20191218-11:09:20
attr experiment Simulations
attr inifile omnetpp.ini
attr iterationvars "$seed=25, $0=10000"
attr iterationvarsf seed=25,10000-
attr measurement "$seed=25, $0=10000"
attr network WifiCelNetPassiveQueue
attr processid 65753
attr repetition 0
attr replication #0
attr resultdir results/Simulations/omnet
attr runnumber 44
attr seedset 25
itervar seed 25
param **.numJobs 10000
param *.OFFLOAD.deadline exponential(10000s)
param *.source.interArrivalTime exponential(120s)
param *.WIFI.serviceTime exponential(40s)
param *.CELL.serviceTime exponential(400s)
param *.OFFLOAD.switchToWi exponential(1524s)
param *.OFFLOAD.switchToCel exponential(3120s)
param *.LOCAL.serviceTime exponential(5s)
param *.REMOTE.serviceTime exponential(1s)

vector 0 WifiCelNetPassiveQueue.WIFI serviceTime:vector ETV
attr interpolationmode none
attr title "wifi Service, vector"
attr unit s
vector 1 WifiCelNetPassiveQueue.WIFI responseTime:vector ETV
attr interpolationmode none
attr title "Response Time, vector"
attr unit s
vector 2 WifiCelNetPassiveQueue.REMOTE serviceTime:vector ETV
attr interpolationmode none
attr title "wifi Service, vector"
attr unit s
vector 3 WifiCelNetPassiveQueue.REMOTE responseTime:vector ETV
attr interpolationmode none
attr title "Response Time, vector"
attr unit s
vector 4 WifiCelNetPassiveQueue.sink lifeTime:vector ETV
attr interpolationmode none
attr title "lifetime of arrived jobs, vector"
attr unit s
vector 5 WifiCelNetPassiveQueue.OFFLOAD queueLength:vector ETV
attr interpolationmode sample-hold
attr title "queue length, vector"
vector 6 WifiCelNetPassiveQueue.REMOTE queueLength:vector ETV
attr interpolationmode sample-hold
attr title "queue length, vector"
vector 7 WifiCelNetPassiveQueue.OFFLOAD storeCelTime:vector ETV
attr interpolationmode none
attr title "Time in Cell, vector"
attr unit s
vector 8 WifiCelNetPassiveQueue.OFFLOAD storeDeadline:vector ETV
attr interpolationmode none
attr title "deadline, vector"
attr unit s
vector 9 WifiCelNetPassiveQueue.CELL serviceTime:vector ETV
attr interpolationmode none
attr title "wifi Service, vector"
attr unit s
vector 10 WifiCelNetPassiveQueue.CELL responseTime:vector ETV
attr interpolationmode none
attr title "Response Time, vector"
attr unit s
vector 11 WifiCelNetPassiveQueue.LOCAL serviceTime:vector ETV
attr interpolationmode none
attr title "wifi Service, vector"
attr unit s
vector 12 WifiCelNetPassiveQueue.LOCAL responseTime:vector ETV
attr interpolationmode none
attr title "Response Time, vector"
attr unit s
vector 13 WifiCelNetPassiveQueue.OFFLOAD storeWifiTime:vector ETV
attr interpolationmode none
attr title "Time in Wifi, vector"
attr unit s
vector 14 WifiCelNetPassiveQueue.LOCAL queueLength:vector ETV
attr interpolationmode sample-hold
attr title "queue length, vector"
0	175300	3000731.102173697121	136.21941859174
0	175307	3000838.650646801651	17.091271372587
0	175314	3000887.908011913222	5.180228010952
0	175327	3001621.93069820841	256.12376254774
0	175332	3001635.910469668529	13.979771460119
0	175337	3001653.607638688665	17.697169020136
0	175344	3001775.90505575742	122.29741706875
0	175349	3001834.552232170546	58.647176413126
0	175356	3001944.393040467946	12.91783175692
0	175365	3002065.485225910288	54.592981303744
0	175370	3002113.588589156992	48.103363246704
0	175377	3002203.248442521847	37.452324998878
0	175388	3002289.140515879565	62.857380569534
0	175391	3002290.509292958458	1.368777078893
0	175402	3002452.974852314397	162.46555935594
0	175407	3002474.754298361742	21.779446047345
0	175412	3002492.825667776059	18.071369414317
0	175419	3002634.764316504517	12.882436682542
0	175426	3002645.99120979463	8.382390015299
0	175433	3002688.831995540226	26.109861528904
0	175442	3002796.737182539051	86.2008646277
0	175447	3002821.278807245245	24.541624706194
0	175454	3002922.481802497824	5.067774180561
0	175509	3004620.817188225541	157.42264199577
0	175514	3004661.097311261211	40.28012303567
0	175519	3004671.643821227017	10.546509965806
0	175530	3004811.404278653896	139.76045742688
0	175537	3004869.375933877319	57.971655223423
0	175542	3004898.553752316896	29.177818439577
0	175547	3004939.226891628685	40.673139311789
0	175552	3004987.161845327485	47.9349536988
0	175561	3005051.333696280136	10.67129839217
0	175566	3005214.020863707387	162.68716742725
0	175574	3005486.765490512999	12.103138547446
0	175616	3006892.577113888477	122.22127020639
0	175623	3007026.537417259946	133.96030337147
0	175628	3007086.115573166725	59.578155906779
0	175633	3007086.428713384305	0.31314021758
0	175638	3007117.141850822017	30.713137437712
0	175643	3007123.494371641208	6.352520819191
0	175648	3007129.565098887357	6.070727246149
0	175655	3007227.948695921641	70.334544632464
0	175666	3007366.222046708009	3.283897208793
0	175673	3007760.658523229454	38.683116610883
0	175682	3008051.297981912555	59.003958101858
0	175687	3008060.749080984808	9.451099072253
0	175694	3008207.304787478512	34.557417636945
0	175701	3008266.604883198314	21.499450439097
0	175708	3008302.870604846085	6.351977435947
0	175715	3008419.953029536806	7.8742023364
0	175724	3008521.258628210316	63.435066454943
0	175729	3008531.009583920997	9.750955710681
0	175736	3008579.317909588357	29.583040894536
0	175743	3008693.120313937501	32.257985648408
0	175750	3009021.8910132057	17.262988994786
0	175759	3009270.889306532035	21.533887953174
0	175764	3009297.050822623866	26.161516091831
0	175771	3009432.015223096945	63.406849587942
0	175778	3009707.58673467677	31.656495196061
0	175787	3009853.895966539544	58.996192219043
0	175792	3009933.631001693512	79.735035153968
0	175801	3010047.376911783367	34.466425472327
0	175806	3010052.543571799265	5.166660015898
0	175813	3010123.039450828416	53.720962763306
0	175820	3010344.800774999352	48.002046401157
0	175829	3010949.932575661544	10.742181705147
0	175836	3010960.001407816442	10.068832154898
0	175841	3010960.332293355695	0.330885539253
0	175850	3011309.614924740825	149.27673390798
0	175857	3011346.017895859136	36.402971118311
0	175862	3011396.275536727221	50.257640868085
0	175871	3011446.868464806856	17.200016687513
0	175876	3011453.195003757009	6.326538950153
0	175883	3011785.394453488499	17.957688767543
0	175890	3011862.518835839576	26.348995745611
0	175897	3011947.33406802445	72.736158682444
0	175904	3012197.261870192197	73.727019319681
0	175911	3012248.314860297622	3.422763319788
0	175920	3012419.293185183728	155.80622885015
0	175925	3012458.545214387252	39.252029203524
0	175934	3012660.31488254349	4.244924660069
0	175939	3012662.965500519852	2.650617976362
0	175946	3012861.896763605681	54.150419872504
0	175953	3012939.096662719432	54.701097747342
0	175960	3013175.435618256747	37.293604600559
0	175967	3013421.213589015252	118.10372569856
0	175974	3013544.607916227218	45.096456306394
0	175993	3014077.555724843863	8.88981250475
0	176000	3014219.523199530992	59.5250591419
0	176007	3014342.969879243254	48.284067657477
0	176014	3014420.690167820845	0.503437512312
0	176021	3014482.500905267201	20.504235439829
0	176034	3015182.55902418177	46.940518242418
0	176039	3015220.576406027904	38.017381846134
0	176046	3015274.258494655508	4.642645775696
0	176053	3015640.840577698494	54.008250335792
0	176060	3015763.197418114823	1.124147958444
0	176067	3016083.697997446213	23.077647539081
0	176074	3016158.786426740093	5.098418674241
0	176081	3016225.933653560889	5.550891303673
0	176088	3016551.253492387665	43.520848026348
0	176097	3016596.287665667637	25.272401500593
0	176102	3016687.485416439031	91.197750771394
0	176109	3016738.382989491311	10.372289057469
0	176116	3017024.857502933181	48.822258165025
0	176125	3017185.730430909102	53.678384443764
0	176132	3017242.720479268744	56.990048359642
0	176137	3017250.012721891689	7.292242622945
0	176144	3017367.199450151366	81.195773753461
0	176165	3018227.859443503426	11.642896069015
0	176168	3018228.589943436651	0.730499933225
0	176181	3018468.305212267665	1.53770883817
0	176188	3018568.507018072097	19.240472697196
0	176195	3018589.202300454787	4.736013526093
0	176202	3018738.935639110927	12.934859507859
0	176209	3018847.542196266241	14.03058406523
0	176216	3018968.611945942745	0.245505391262
0	176223	3019236.662742834015	31.638232544696
0	176232	3019322.580247337596	85.774459999213
0	176239	3019404.598220865577	82.017973527981
0	176244	3019427.879032550953	23.280811685376
0	176251	3019623.227806872246	10.28391501277
0	176258	3019873.857933922939	27.361435123146
0	176265	3019921.064231966879	35.185053116369
0	176272	3019975.137625724146	51.146883577343
0	176279	3020112.270501928332	14.935474722281
0	176291	3020444.998244289752	56.294781519227
0	176302	3020627.729026087898	40.529025364257
0	176311	3020655.386577799121	13.232906637624
0	176316	3020680.986183819166	25.599606020045
0	176323	3020707.019504891371	4.987939005721
0	176330	3020744.985907135552	6.674434313416
0	176339	3020920.738290548088	86.149765241846
0	176344	3020993.472571129551	72.734280581463
0	176351	3021125.630962553705	39.998869599636
0	176358	3021349.012956010102	76.346667090529
0	176365	3021719.721546127447	12.132041015466
0	176437	3023799.234691418095	38.569749681612
0	176442	3023874.004676342169	74.769984924074
0	176451	3023992.309891874938	118.30521553277
0	176462	3024021.637404537801	29.327512662863
0	176467	3024075.49446204911	53.857057511309
0	176472	3024116.55613361464	41.06167156553
0	176479	3024142.258722959769	25.702589345129
0	176484	3024218.040818698194	75.782095738425
0	176489	3024222.571934881948	4.531116183754
0	176494	3024307.280281453541	84.708346571593
0	176501	3024322.688804314899	15.408522861358
0	176506	3024394.966585831231	72.277781516332
0	176511	3024402.505717264249	7.539131433018
0	176518	3024700.162641460622	6.92970170232
0	176527	3024731.404502803949	20.52488266907
0	176532	3024823.887360121271	92.482857317322
0	176541	3025099.944779911639	17.271098741406
0	176546	3025106.790285377927	6.845505466288
0	176555	3025210.960208757888	30.353771706698
0	176562	3025255.145499476437	44.185290718549
0	176567	3025276.332134511622	21.186635035185
0	176574	3025311.846265487369	20.949533318274
0	176581	3025469.085727726156	0.471094827312
0	176590	3025593.653728216538	61.016793361696
0	176597	3025608.265974164315	14.612245947777
0	176604	3025619.803304454322	11.537330290007
0	176609	3025629.992720285714	10.189415831392
0	176616	3025700.418821850132	43.520742559564
0	176623	3025726.322910232079	16.526199607355
0	176630	3025760.811857211891	24.917765787928
0	176637	3025823.041786849401	17.343117404349
0	176644	3025881.720868978681	32.908148234903
0	176651	3025927.215796658958	16.545091076257
0	176658	3026290.572820641499	0.722943044915
0	176665	3026475.172613159221	22.09320701282
0	176672	3026641.664772728079	2.877704418705
0	176679	3026676.664192753004	7.362352039454
0	176686	3026731.902536771681	19.18715983639
0	176693	3026805.775210459786	22.398468758575
0	176700	3026870.064754727592	25.953337007254
0	176711	3027049.635461020637	103.79308803289
0	176720	3027163.877190550778	114.24172953014
0	176741	3027845.305623464544	27.014062696347
0	176746	3027901.016958980763	55.711335516219
0	176751	3027909.612525128256	8.595566147493
0	176758	3027940.132110491211	30.519585362955
0	176763	3027991.328305775683	51.196195284472
0	176768	3028030.149025067971	38.820719292288
0	176775	3028090.277749159323	7.227479943245
0	176786	3028287.012433835886	1.503287860171
0	176793	3028380.707488570857	12.426075572473
0	176800	3028432.371804695722	6.930064538668
0	176807	3028524.710132451585	49.740336870508
0	176814	3028623.177156306073	82.807827092315
0	176823	3028868.427266046876	25.587971885214
0	176828	3028916.280463218204	47.853197171328
0	176835	3029471.196677195663	4.202825472163
0	176844	3029650.844039618391	65.226183252022
0	176851	3029681.620192248268	30.776152629877
0	176856	3029691.957714749266	10.337522500998
0	176863	3029738.014801238461	26.901804167778
0	176870	3029766.863720058248	5.65096511845
0	176877	3029831.707122088212	6.242542937366
0	176886	3029924.123833074907	68.876322568014
0	176893	3029953.031761502455	28.907928427548
0	176898	3029966.442243641333	13.410482138878
0	176911	3030046.613065627967	60.845281933882
0	176920	3030111.301186897654	64.688121269687
0	176925	3030149.272615102616	37.971428204962
0	176932	3030173.053479231686	23.78086412907
0	176937	3030221.483026357628	48.429547125942
0	176942	3030244.357757484754	22.874731127126
0	176947	3030275.078923188457	30.721165703703
0	176954	3030412.34249297139	48.434678436849
0	176961	3030501.129988502761	10.670146561743
0	176968	3030585.839900431039	25.44619329082
0	176975	3030893.151595742298	26.620777161568
0	176984	3031236.243679615248	94.969633637098
0	176989	3031261.421407776996	25.177728161748
0	176996	3031381.279886702574	31.278121301887
0	177003	3031502.480177641359	19.383785257384
0	177010	3031534.924384488628	6.612988421732
0	177017	3031542.465170432617	1.763932618369
0	177024	3031655.950970246935	79.29198124195
0	177031	3031687.154177386443	1.38521191429
0	177038	3031719.330522467205	13.384949883348
0	177045	3032070.214787290261	4.027384312844
0	177054	3032140.22980997253	33.209693634398
0	177063	3032180.379523470749	40.149713498219
0	177068	3032213.665379146621	33.285855675872
0	177073	3032240.678662322818	27.013283176197
0	177080	3032346.809839872061	23.804431370728
0	177087	3032456.422989345867	33.318727428443
0	177096	3032773.113914482322	89.245514708456
0	177101	3032828.698351201623	55.584436719301
0	177108	3033012.723848107792	38.994190151375
0	177115	3033377.823120939022	37.806109531659
0	177122	3033556.123881869643	18.656578884717
0	177129	3033721.887112041755	2.088130184679
0	177136	3033831.401112156033	6.439096234346
0	177143	3033969.238214667024	4.65667860947
0	177150	3034157.989628229423	98.672917726817
0	177157	3034220.089595646567	15.854185393236
0	177164	3034235.331102264961	8.221618309125
0	177171	3034372.194292644173	4.484890043518
0	177184	3034744.065083675208	270.71144466464
0	177189	3034845.232431915312	101.1673482401
0	177194	3034851.357590321112	6.1251584058
0	177199	3034876.812128584128	25.454538263016
0	177206	3034959.31574794619	41.903471600792
0	177215	3035088.244774308269	121.54911742443
0	177221	3035118.321757605118	30.076983296849
0	177329	3037750.533223551205	16.55290695251
0	177336	3037829.249577743264	78.716354192059
0	177341	3037864.822458468831	35.572880725567
0	177351	3037992.236070302757	127.41361183393
0	177356	3038008.131638972706	15.895568669949
0	177365	3038105.005481839856	96.87384286715
0	177370	3038145.326591199088	40.321109359232
0	177377	3038190.25742985281	44.930838653722
0	177380	3038191.355698485768	1.098268632958
0	177387	3038193.246580655079	1.890882169311
0	177394	3038265.336964685008	72.090384029929
0	177399	3038311.47457770606	46.137613021052
0	177406	3038366.368705758426	54.894128052366
0	177413	3038453.428560300831	87.059854542405
0	177420	3038505.152976653302	51.724416352471
0	177427	3038529.271201817149	24.118225163847
0	177434	3038648.338735840615	119.06753402347
0	177441	3038687.171024242188	38.832288401573
0	177446	3038706.478871404072	19.307847161884
0	177451	3038831.236467325479	124.75759592141
0	177458	3038940.682247663744	109.44578033826
0	177463	3038942.923129125537	2.240881461793
0	177468	3039005.851289773264	62.928160647727
0	177471	3039006.679253649972	0.827963876708
0	177482	3039020.987060543644	14.307806893672
0	177485	3039023.037954365045	2.050893821401
0	177492	3039035.788408358372	12.750453993327
0	177497	3039119.389298545628	83.600890187256
0	177502	3039141.71256314724	22.323264601612
0	177509	3039290.799695670616	3.608791056241
0	177518	3039475.819129174883	55.89316512579
0	177523	3039495.26937012502	19.450240950137
0	177530	3039654.334182901704	7.54044473403
0	177537	3039684.047524740012	23.180965148312
0	177546	3039924.103943819533	8.949695456766
0	177551	3039932.660123860453	8.55618004092
0	177563	3040098.471249368786	7.432783812006
0	177570	3040185.06930197333	69.898348963151
0	177581	3040303.565375149674	56.128389472075
0	177588	3040407.221473268557	103.65609811888
0	177593	3040504.361693226526	97.140219957969
0	177599	3040557.018043033731	52.656349807205
0	177609	3040669.308321332041	31.975590028268
0	177614	3040670.280270166929	0.971948834888
0	177621	3040914.220675681034	26.082234929569
0	177628	3041096.489772913726	51.727561306304
0	177635	3041157.514706911922	27.573118766199
0	177642	3041355.93730626703	43.003865766191
0	177649	3041486.794322243187	5.826762146435
0	177656	3041531.951548265476	2.733371719741
0	177667	3041952.413696636375	38.11772483498
0	177674	3042416.683778929613	12.816468002341
0	177681	3042460.180048521079	37.442463602003
0	177688	3042475.804403868223	8.634493943229
0	177695	3042565.338161722812	23.956427054313
0	177704	3042685.051392468437	63.803233460371
0	177709	3042686.632325129413	1.580932660976
0	177716	3042835.642133874468	15.230747119537
0	177723	3043018.245983143785	38.069653990255
0	177730	3043089.000440645574	9.271806617951
0	177737	3043136.872169219479	28.111157768024
0	177748	3043315.079377457543	44.67801463127
0	177753	3043446.434857291956	131.35547983441
0	177758	3043481.978624015537	35.543766723581
0	177765	3043913.73455542289	0.200678227007
0	177772	3043921.531687219383	1.982663269568
0	177779	3043936.882606335559	3.146714598494
0	177786	3044237.018032917692	38.501838803766
0	177793	3044317.643202109718	12.948981858246
0	177800	3044844.503690994961	34.406564804484
0	177807	3044885.360241230231	36.178447619975
0	177814	3044901.591767031173	10.690519523839
0	177842	3046026.070303648814	4.000788487342
0	177847	3046043.217862126917	17.147558478103
0	177856	3046244.147721552031	200.92985942511
0	177861	3046247.701868636565	3.554147084534
0	177870	3046330.672243103962	82.970374467397
0	177875	3046425.804989535291	95.132746431329
0	177880	3046445.729145234728	19.924155699437
0	177885	3046459.429905577741	13.700760343013
0	177890	3046480.808996665852	21.379091088111
0	177893	3046481.591106046978	0.782109381126
0	177902	3046563.472131782588	81.88102573561
0	177907	3046584.542243313084	21.070111530496
0	177914	3046766.878192397408	1.755653515619
0	177921	3046906.0965867788	56.849609476679
0	177928	3046929.15837194058	0.2298351455
0	177937	3046971.374774952166	24.797522113887
0	177948	3047089.399511422082	118.02473646992
0	177962	3047572.032545437917	41.169247789524
0	177971	3047613.446440824083	41.413895386166
0	177976	3047666.845987310138	53.399546486055
0	177981	3047695.961523412217	29.115536102079
0	177986	3047721.252285650116	25.290762237899
0	177991	3047722.968628315299	1.716342665183
0	177996	3047771.109047728865	48.140419413566
0	178005	3047978.319447115536	49.298222160554
0	178010	3048030.402059833414	52.082612717878
0	178017	3048137.814957441214	42.307730607033
0	178026	3048217.396793640088	34.005331512306
0	178031	3048325.309852059171	107.91305841908
0	178042	3048740.470451050331	21.447612188242
0	178049	3048767.61699353495	1.466557049881
0	178056	3048822.321341881751	0.156281212739
0	178063	3049021.120632297566	14.834100407173
0	178070	3049148.534961767453	74.500072020678
0	178077	3049390.979587480274	58.366374057898
0	178086	3049489.410048217954	82.735149566071
0	178091	3049649.051015862878	159.64096764492
0	178098	3049895.481413287881	55.155725456069
0	178105	3050088.003268106636	0.192393974653
0	178114	3050195.832082663818	21.30497150289
0	178117	3050195.970598495411	0.138515831593
0	178126	3050277.740286740458	42.747330841125
0	178133	3050415.53363655947	75.418663849822
0	178142	3050873.853019410751	278.52523696272
0	178147	3050919.13755259185	45.284533181099
0	178156	3051066.165439175534	6.149180028716
0	178163	3051219.207612127393	153.04217295186
0	178168	3051259.309849499781	40.102237372388
0	178177	3051362.227452281219	93.071049028904
0	178182	3051380.757979509818	18.530527228599
0	178189	3051462.735811405248	17.351611185968
0	178196	3051704.454846538899	17.97553872124
0	178205	3051816.98918314981	51.517803355757
0	178210	3051826.55714913365	9.56796598384
0	178217	3051912.716251542576	34.995466576267
0	178224	3051929.614074588184	6.639720356054
0	178233	3052015.147832983326	42.390462260361
0	178236	3052015.518834009095	0.371001025769
0	178245	3052073.927591810097	32.666967395509
0	178252	3052847.04867524923	3.567969419046
0	178263	3053014.559645455507	78.933968506621
0	178268	3053045.4678934087	30.908247953193
0	178273	3053130.128763019644	84.660869610944
0	178316	3054472.216313917322	38.359707929124
0	178321	3054503.325959676481	31.109645759159
0	178326	3054524.440358311237	21.114398634756
0	178333	3054550.635151823437	26.1947935122
0	178338	3054569.363589089236	18.728437265799
0	178343	3054591.146921873486	21.78333278425
0	178348	3054602.938272558818	11.791350685332
0	178355	3054644.141887003082	8.506645050795
0	178362	3054722.639803231628	14.296780380541
0	178373	3054845.004314294513	66.218212808742
0	178380	3054962.290367433505	1.68576040908
0	178387	3055437.525785435136	5.887308270946
0	178394	3055551.085218166146	34.54946002905
0	178401	3055571.44597504056	18.167158125215
0	178412	3055825.363105657558	142.44137627469
0	178417	3055877.336586820579	51.973481163021
0	178422	3055881.709031409085	4.372444588506
0	178429	3056001.197172251393	89.486515588359
0	178436	3056047.664918037126	13.400716713846
0	178443	3056148.083080437135	4.142056156914
0	178450	3056299.289314061934	4.543276832206
0	178457	3056330.584438305289	7.492995774644
0	178466	3056585.765556988759	22.436964761635
0	178471	3056629.863802739363	44.098245750604
0	178478	3056747.933431977174	87.10526606097
0	178485	3057085.419785213938	48.476008975054
0	178492	3057356.633210108421	10.443801534803
0	178506	3057868.334662321278	9.784628904769
0	178511	3057873.986494894532	5.651832573254
0	178518	3057904.981166098996	10.377412670468
0	178529	3058193.372344469605	23.298119642941
0	178536	3058360.133223322835	9.118745065903
0	178615	3061414.220073592378	24.049382047691
0	178621	3061425.753673804286	11.533600211908
0	178626	3061455.863483952661	30.109810148375
0	178638	3061484.916003854389	29.052519901728
0	178643	3061518.751653738266	33.835649883877
0	178654	3061551.248810312968	32.497156574702
0	178657	3061551.887288022773	0.638477709805
0	178666	3061615.555825814396	63.668537791623
0	178673	3061656.944049519245	41.388223704849
0	178678	3061672.713009181155	15.76895966191
0	178685	3061715.608756014858	42.895746833703
0	178692	3061760.893155543913	45.284399529055
0	178697	3061800.01479206111	39.121636517197
0	178702	3061822.678780661279	22.663988600169
0	178705	3061822.734999884236	0.056219222957
0	178714	3061883.667312940908	60.932313056672
0	178719	3061897.549194979242	13.881882038334
0	178724	3061921.1110914089	23.561896429658
0	178729	3061934.656093817184	13.545002408284
0	178734	3061998.332777190503	63.676683373319
0	178741	3062059.042485655844	60.709708465341
0	178746	3062065.933861255996	6.891375600152
0	178751	3062144.677400279376	78.74353902338
0	178756	3062159.835351695043	15.157951415667
0	178761	3062198.244029010498	38.408677315455
0	178766	3062213.554800791403	15.310771780905
0	178771	3062264.318248671392	50.763447879989
0	178778	3062284.65450565326	18.219058090031
0	178785	3062416.987848041769	5.080511035126
0	178792	3062610.82459595815	124.46880421708
0	178801	3062993.821984871617	114.28428641509
0	178806	3063031.949331850648	38.127346979031
0	178813	3063182.571040978082	15.635209051448
0	178820	3063386.182299913513	66.929804992361
0	178827	3063484.491878830675	40.565996050028
0	178838	3063665.255266397166	154.23996974168
0	179016	3067354.124064321588	35.827278333288
0	179021	3067403.32704550539	49.202981183802
0	179026	3067408.429844806603	5.102799301213
0	179037	3067563.431033714279	155.00118890768
0	179042	3067623.013021515208	59.581987800929
0	179051	3067687.789519100469	64.776497585261
0	179056	3067691.618962102638	3.829443002169
0	179061	3067700.694122851519	9.075160748881
0	179066	3067705.786526142366	5.092403290847
0	179071	3067722.735512218599	16.948986076233
0	179076	3067726.204795188942	3.469282970343
0	179081	3067737.70584420015	11.501049011208
0	179086	3067787.295000063175	49.589155863025
0	179091	3067809.545767340609	22.250767277434
0	179098	3067883.320657657031	73.774890316422
0	179103	3067895.966785132728	12.646127475697
0	179108	3067933.974918376557	38.008133243829
0	179115	3067953.966209999292	1.863272572918
0	179142	3068454.358505293126	8.174030325843
0	179149	3068486.564484092613	32.205978799487
0	179154	3068491.190643448128	4.626159355515
0	179159	3068494.454316248735	3.263672800607
0	179164	3068500.363921834925	5.90960558619
0	179171	3068590.282570683585	89.91864884866
0	179176	3068606.795912496347	16.513341812762
0	179183	3068717.638158860278	40.995768656204
0	179190	3068927.889534120392	35.723383672768
0	179197	3068953.85330865439	2.794532757612
0	179208	3069121.616959893498	16.062302171467
0	179215	3069240.603053531418	31.991701432315
0	179222	3069272.08377512648	14.811246662038
0	179229	3069356.118465935619	7.37834613725
0	179236	3069647.155592185963	8.765334611515
0	179243	3069809.566796691694	86.350702064706
0	179250	3070055.512322530529	4.143838170404
0	179257	3070086.237726283429	5.981417869615
0	179264	3070450.848554864458	1.413444128141
0	179271	3070517.304160348072	37.071727724156
0	179278	3070709.683865891498	28.876361854018
0	179291	3070843.278743357178	85.144870281298
0	179300	3070916.763309282584	73.484565925406
0	179305	3070943.367569867659	26.604260585075
0	179312	3071017.064499605203	73.696929737544
0	179319	3071049.378447447686	32.313947842483
0	179328	3071090.569941475573	41.191494027887
0	179335	3071108.075312199494	17.505370723921
0	179340	3071118.248569963665	10.173257764171
0	179345	3071123.766008499943	5.517438536278
0	179350	3071200.943324743674	77.177316243731
0	179355	3071206.886782670709	5.943457927035
0	179362	3071347.678689422905	44.848896945409
0	179369	3071419.830670405568	12.833255382104
0	179378	3071449.64162985402	19.697032626408
0	179383	3071483.220607427785	33.578977573765
0	179390	3071623.991205954296	8.980548763335
0	179397	3071678.435290060588	1.928500204868
0	179404	3071926.178808228273	46.845321976362
0	179411	3072061.164323035478	2.694372958224
0	179420	3072516.877844796401	86.255957853728
0	179425	3072639.01486766148	122.13702286508
0	179446	3073467.568505986031	39.042908585191
0	179455	3073521.890937900599	54.322431914568
0	179458	3073522.045267012406	0.154329111807
0	179466	3073546.385085716249	24.339818703843
0	179552	3076385.603238070575	2.176147205209
0	179557	3076395.576343427454	9.973105356879
0	179566	3076555.00527033804	159.42892691059
0	179576	3076688.765682013239	133.7604116752
0	179581	3076710.398428055978	21.632746042739
0	179586	3076720.15692276487	9.758494708892
0	179591	3076722.428232075448	2.271309310578
0	179596	3076732.061442856402	9.633210780954
0	179601	3076762.027078812533	29.965635956131
0	179606	3076774.318127818905	12.291049006372
0	179611	3076802.522850771267	28.204722952362
0	179616	3076818.10611680572	15.583266034453
0	179621	3076896.623651572978	78.517534767258
0	179626	3076952.201438004977	55.577786431999
0	179631	3076965.172607909464	12.971169904487
0	179636	3076966.073561048795	0.900953139331
0	179641	3076989.11662861316	23.043067564365
0	179644	3076990.354534408716	1.237905795556
0	179653	3077073.043695145544	12.955126385814
0	179660	3077306.486428181886	3.472725137972
0	179667	3077412.274458981202	28.055441104878
0	179676	3077633.010260647214	76.651668861625
0	179681	3077635.66419633805	2.653935690836
0	179690	3077906.439878921666	83.114331600885
0	179695	3077939.715238061943	33.275359140277
0	179702	3078101.664312767092	30.697046294831
0	179709	3078280.321165969665	1.539304741109
0	179718	3078451.041763656439	125.69055827682
0	179723	3078457.108528280703	6.066764624264
0	179732	3078534.310750681338	35.151453533362
0	179735	3078535.292459279971	0.981708598633
0	179744	3078558.124868722897	17.558824306579
0	179753	3078642.865940947859	68.429913488725
0	179760	3078672.851813974279	29.98587302642
0	179765	3078780.644425672957	107.79261169868
0	179772	3078895.986001072264	8.95885936071
0	179779	3079095.031608083041	0.991335406876
0	179938	3084078.045311803066	9.686502985841
0	179949	3084205.582536022295	127.53722421923
0	179954	3084208.625987768135	3.04345174584
0	179959	3084219.705693633423	11.079705865288
0	179964	3084320.056633791117	100.35094015769
0	179971	3084378.618773390962	58.562139599845
0	179974	3084380.480334947844	1.861561556882
0	179981	3084402.095372230075	21.615037282231
0	179986	3084409.159316051551	7.063943821476
0	179991	3084420.785162243102	11.625846191551
0	179998	3084442.254433333071	21.469271089969
0	180003	3084471.048571529883	28.794138196812
0	180008	3084487.077740128708	16.029168598825
0	180013	3084503.260512276084	16.182772147376
0	180020	3084573.041740329032	69.781228052948
0	180025	3084575.401952251601	2.360211922569
0	180030	3084581.268002352579	5.866050100978
0	180035	3084602.268790135569	21.00078778299
0	180040	3084623.830646150711	21.561856015142
0	180045	3084666.152634204773	42.321988054062
0	180050	3084678.131390740195	11.978756535422
0	180055	3084724.072630706089	45.941239965894
0	180060	3084799.771097246917	75.698466540828
0	180065	3084807.345166963865	7.574069716948
0	180070	3084862.485408686594	55.140241722729
0	180075	3084916.581339585521	54.095930898927
0	180080	3085066.585874268715	150.00453468319
0	180087	3085093.827746027008	27.241871758293
0	180092	3085117.875961658577	24.048215631569
0	180097	3085188.663736991874	70.787775333297
0	180104	3085319.229070837171	91.865295019332
0	180111	3085493.738774904823	32.367644157198
0	180122	3085664.682690901316	80.708154682788
0	180127	3085678.246685047701	13.563994146385
0	180132	3085697.509727361771	19.26304231407
0	180139	3085739.729006588852	12.507410367372
0	180146	3085861.673799293433	3.3325546582
0	180153	3085901.712543861027	13.180089980455
0	180160	3086341.928374619046	50.486247360665
0	180401	3093193.92721955483	28.651913091137
0	180410	3093270.335496041222	76.408276486392
0	180415	3093275.436572579684	5.101076538462