version 2
run Simulations-50-20191218-11:09:21-65753
attr configname Simulations
attr datetime 20191218-11:09:21
attr experiment Simulations
attr inifile omnetpp.ini
attr iterationvars "$seed=65, $0=600"
attr iterationvarsf seed=65,600-
attr measurement "$seed=65, $0=600"
attr network WifiCelNetPassiveQueue
attr processid 65753
attr repetition 0
attr replication #0
attr resultdir results/Simulations/omnet
attr runnumber 50
attr seedset 65
itervar seed 65
param **.numJobs 10000
param *.OFFLOAD.deadline exponential(600s)
param *.source.interArrivalTime exponential(120s)
param *.WIFI.serviceTime exponential(40s)
param *.CELL.serviceTime exponential(400s)
param *.OFFLOAD.switchToWi exponential(1524s)
param *.OFFLOAD.switchToCel exponential(3120s)
param *.LOCAL.serviceTime exponential(5s)
param *.REMOTE.serviceTime exponential(1s)

vector 0 WifiCelNetPassiveQueue.WIFI serviceTime:vector ETV
attr interpolationmode none
attr title "wifi Service, vector"
attr unit s
vector 1 WifiCelNetPassiveQueue.WIFI responseTime:vector ETV
attr interpolationmode none
attr title "Response Time, vector"
attr unit s
vector 2 WifiCelNetPassiveQueue.REMOTE serviceTime:vector ETV
attr interpolationmode none
attr title "wifi Service, vector"
attr unit s
vector 3 WifiCelNetPassiveQueue.REMOTE responseTime:vector ETV
attr interpolationmode none
attr title "Response Time, vector"
attr unit s
vector 4 WifiCelNetPassiveQueue.sink lifeTime:vector ETV
attr interpolationmode none
attr title "lifetime of arrived jobs, vector"
attr unit s
vector 5 WifiCelNetPassiveQueue.OFFLOAD storeCelTime:vector ETV
attr interpolationmode none
attr title "Time in Cell, vector"
attr unit s
vector 6 WifiCelNetPassiveQueue.CELL serviceTime:vector ETV
attr interpolationmode none
attr title "wifi Service, vector"
attr unit s
vector 7 WifiCelNetPassiveQueue.CELL responseTime:vector ETV
attr interpolationmode none
attr title "Response Time, vector"
attr unit s
vector 8 WifiCelNetPassiveQueue.OFFLOAD storeWifiTime:vector ETV
attr interpolationmode none
attr title "Time in Wifi, vector"
attr unit s
vector 9 WifiCelNetPassiveQueue.OFFLOAD queueLength:vector ETV
attr interpolationmode sample-hold
attr title "queue length, vector"
vector 10 WifiCelNetPassiveQueue.REMOTE queueLength:vector ETV
attr interpolationmode sample-hold
attr title "queue length, vector"
vector 11 WifiCelNetPassiveQueue.OFFLOAD storeDeadline:vector ETV
attr interpolationmode none
attr title "deadline, vector"
attr unit s
vector 12 WifiCelNetPassiveQueue.LOCAL serviceTime:vector ETV
attr interpolationmode none
attr title "wifi Service, vector"
attr unit s
vector 13 WifiCelNetPassiveQueue.LOCAL responseTime:vector ETV
attr interpolationmode none
attr title "Response Time, vector"
attr unit s
vector 14 WifiCelNetPassiveQueue.LOCAL queueLength:vector ETV
attr interpolationmode sample-hold
attr title "queue length, vector"
0	172495	3000076.317384381525	22.824830860708
0	172502	3000246.849338254566	24.136144601408
0	172509	3000349.956682446055	68.010776215739
0	172516	3000475.714516863281	5.329091725159
0	172523	3000497.537766569292	7.125373833396
0	172530	3000635.586083274403	0.795736379639
0	172538	3000765.900332997805	56.936548658994
0	172562	3001302.907759388562	65.883170989911
0	172567	3001309.063115897423	6.155356508861
0	172576	3001435.854633819644	91.605747265158
0	172579	3001437.293357644558	1.438723824914
0	172609	3002333.965851206259	5.877814978463
0	172616	3002358.337707598258	24.371856391999
0	172621	3002412.16800462264	53.830297024382
0	172626	3002431.54606624375	19.37806162111
0	172683	3004047.523012866417	9.193681292273
0	172690	3004078.014213263256	30.491200396839
0	172695	3004103.105431731058	25.091218467802
0	172700	3004105.684340810116	2.578909079058
0	172709	3004155.025565425591	46.076916866376
0	172720	3004215.769191537733	60.743626112142
0	172725	3004270.618040596856	54.848849059123
0	172732	3004308.217232161074	23.373451016889
0	172778	3005475.694193173349	72.862564651032
0	172783	3005523.439808116036	47.745614942687
0	172791	3005720.347983029068	196.90817491303
0	173129	3010747.237187462747	15.671827867208
0	173134	3010788.046164808694	40.808977345947
0	173139	3010796.824377257483	8.778212448789
0	173144	3010810.485418318441	13.661041060958
0	173153	3010843.871533854018	33.386115535577
0	173158	3010853.334645967265	9.463112113247
0	173163	3010871.994434950842	18.659788983577
0	173170	3010947.725045991093	9.12153527333
0	173326	3014711.556421333594	5.017266395886
0	173333	3014775.822272277133	64.265850943539
0	173338	3014784.10792883812	8.285656560987
0	173349	3014830.380229681236	46.272300843116
0	173354	3014835.360778517656	4.98054883642
0	173361	3015328.730416295229	26.65637008187
0	173368	3015384.969911057689	6.039128692606
0	173375	3015494.441666827279	25.489601209994
0	173386	3015761.801259785664	85.78093057078
0	173393	3015884.097323720369	122.29606393471
0	173398	3015939.902328231606	55.805004511237
0	173403	3015947.744032209975	7.841703978369
0	173410	3016095.700785885522	5.704140558685
0	173417	3016165.8774106613	50.48497261744
0	173424	3016259.391284711885	0.556495254068
0	173433	3016347.506641216133	25.089352978849
0	173438	3016359.290876093711	11.784234877578
0	173445	3016468.536115611945	6.753653694975
0	173452	3016507.160381508235	8.13041355646
0	173459	3016579.156261113355	33.79637510979
0	173470	3016831.049629609431	163.69703505197
0	173475	3016854.416939330407	23.367309720976
0	173482	3016884.649902933143	30.232963602736
0	173487	3016910.413607883744	25.763704950601
0	173494	3017053.95210295411	48.248667739643
0	173509	3017318.963610059113	68.693564095385
0	173514	3017388.420314560001	69.456704500888
0	173533	3017557.836129313918	169.41581475392
0	173651	3019641.78353815119	36.388069723269
0	173656	3019694.333597912373	52.550059761183
0	173661	3019731.990103897784	37.656505985411
0	173666	3019735.009269432935	3.019165535151
0	173671	3019752.106346346712	17.097076913777
0	173678	3019937.917284342329	32.031297688624
0	173689	3020285.976310221924	89.471847725102
0	173696	3020374.68007592177	2.731281447519
0	173703	3020485.396374719252	41.50615236165
0	173756	3021368.326474375639	71.467664985441
0	173762	3021485.084523096019	116.75804872038
0	173767	3021506.460970333307	21.376447237288
0	173774	3021617.076979602024	110.61600926872
0	173779	3021625.626707711134	8.54972810911
0	173786	3021663.548532434667	36.398591187969
0	173793	3021930.657992132248	78.93357591939
0	173805	3022449.244268885631	6.909977537237
0	173816	3022766.868307372215	14.477776249311
0	173823	3022821.861434222054	5.240402616545
0	173834	3023326.567323770438	107.37388091187
0	173839	3023413.553588596395	86.986264825957
0	173844	3023524.952799932921	111.39921133653
0	173851	3023722.797197512121	110.24447767639
0	173860	3023962.150155864909	51.221444814879
0	173865	3024005.147975698736	42.997819833827
0	173872	3024253.931661465704	18.068792852491
0	173879	3024444.604310016369	13.383380073748
0	173886	3024640.481195304213	123.69366193515
0	173893	3024701.386620192501	9.083809569329
0	173904	3024778.912999728072	54.099594031746
0	173909	3024795.829694173345	16.916694445273
0	173916	3024824.572535972068	28.742841798723
0	173919	3024825.878309077183	1.305773105115
0	173930	3024996.107230303682	8.17674859476
0	173939	3025072.132067953137	76.024837649455
0	173944	3025108.51419265019	36.382124697053
0	173949	3025192.089259334693	83.575066684503
0	173956	3025475.243619315943	79.49541750815
0	173963	3025625.632709457026	101.43481267934
0	173970	3025744.393905627446	48.543247207932
0	173977	3025955.751757338117	1.115972131057
0	173986	3026114.892003100785	60.747240449362
0	173991	3026148.548182063341	33.656178962556
0	173998	3026205.421321277331	2.032412803925
0	174005	3026491.862416426204	13.284003451857
0	174012	3026599.889640632285	14.937889256979
0	174021	3027043.552545337411	97.017154850762
0	174026	3027062.243814277599	18.691268940188
0	174033	3027130.569167294311	4.359343308501
0	174040	3027311.922049203743	26.967231432065
0	174049	3027633.655486098642	132.95696049739
0	174054	3027640.299638577169	6.644152478527
0	174065	3027664.293539538617	15.173302299167
0	174070	3027696.3854981805	32.091958641883
0	174077	3027764.113072208841	67.727574028341
0	174086	3027812.320332802824	48.207260593983
0	174091	3027836.956007312237	24.635674509413
0	174096	3027854.224607588853	17.268600276616
0	174103	3028177.571313119702	43.206902195653
0	174110	3028278.342242687184	40.345739242944
0	174117	3028536.095097148984	8.573600688702
0	174124	3028748.610338056263	0.244070249736
0	174131	3028755.263665618644	1.935985780043
0	174138	3028801.69796754886	27.454279380162
0	174145	3028877.776726357992	46.91628467528
0	174152	3029186.421032678496	16.8487753903
0	174163	3029296.044777969885	95.225656582766
0	174170	3029350.661014358698	54.616236388813
0	174175	3029367.78601370138	17.124999342682
0	174180	3029401.225193777113	33.439180075733
0	174187	3029596.784673084432	0.881452629683
0	174196	3029657.40165156967	28.674399075485
0	174205	3029828.430843782044	171.02919221237
0	174214	3029997.115329454214	168.68448567217
0	174223	3030083.149377908302	86.034048454088
0	174228	3030099.502146955587	16.352769047285
0	174233	3030109.29443147672	9.792284521133
0	174240	3030164.176573108942	54.882141632222
0	174247	3030206.686013201085	42.509440092143
0	174250	3030208.01929174347	1.333278542385
0	174259	3030251.730975034801	43.711683291331
0	174264	3030256.281015195374	4.550040160573
0	174271	3030331.612654058139	28.751506923715
0	174285	3031038.192083967667	85.374768522025
0	174290	3031112.780053307842	74.587969340175
0	174303	3031259.615265565303	91.638117988098
0	174310	3031336.194571233095	76.579305667792
0	174317	3031377.866865295038	41.672294061943
0	174322	3031393.569612795557	15.702747500519
0	174331	3031895.723124940222	183.59249138138
0	174336	3031958.56447440763	62.841349467408
0	174345	3032145.224387745657	64.251262478379
0	174350	3032151.90522133995	6.680833594293
0	174359	3032344.701430685478	25.402678237142
0	174364	3032445.250327489004	100.54889680353
0	174371	3032636.06788660833	27.19876383938
0	174378	3033085.568809831945	0.221897866386
0	174387	3033428.697081086985	107.26201030922
0	174392	3033453.703088058428	25.006006971443
0	174399	3033687.390055585421	22.589385219989
0	174406	3033747.839271022506	41.402368729676
0	174413	3034161.194880281829	11.579813273863
0	174422	3034300.101610735378	61.15274562758
0	174427	3034360.729424402141	60.627813666763
0	174436	3034465.080462664927	53.444411599792
0	174441	3034477.963280602718	12.882817937791
0	174448	3034786.550368543447	16.966765414834
0	174455	3034873.805521149119	18.815561036931
0	174466	3035140.840450388063	100.29717400917
0	174471	3035243.310935160513	102.47048477245
0	174476	3035285.384424022821	42.073488862308
0	174483	3035494.610365784349	37.085985661907
0	174492	3035679.407356178505	138.76158008772
0	174497	3035713.195097272119	33.787741093614
0	174504	3035775.457581513921	20.782451075843
0	174511	3036140.77648399369	24.10099403156
0	174518	3036259.005297886455	21.185518099549
0	174525	3036322.725280699418	56.261075362109
0	174532	3036440.05465649466	34.293792965247
0	174541	3036514.949126823391	18.153702181176
0	174546	3036530.549848310441	15.60072148705
0	174553	3036585.100672737353	32.163425717713
0	174562	3036682.305124080201	28.731059267715
0	174567	3036747.098027339683	64.792903259482
0	174580	3036998.756635817329	113.71190322835
0	174585	3037094.418268536915	95.661632719586
0	174590	3037096.923624552571	2.505356015656
0	174597	3037165.416386246994	68.492761694423
0	174602	3037184.761208656912	19.344822409918
0	174609	3037417.351182230831	68.03963705522
0	174655	3038479.896409519914	97.870215666341
0	174660	3038533.516811011176	53.620401491262
0	174667	3038564.580257479522	31.063446468346
0	174674	3038639.191519308554	74.611261829032
0	174679	3038644.202982721949	5.011463413395
0	174684	3038657.147379686846	12.944396964897
0	174695	3039220.849314369443	18.832166258676
0	174704	3039351.327523688128	100.4588897907
0	174709	3039403.951049603529	52.623525915401
0	174716	3039463.640344567885	8.972549829432
0	174723	3039551.605844310327	0.60520676219
0	174730	3039632.784738797855	0.570862788413
0	174737	3039955.436198096749	25.360246958755
0	174744	3040098.726809859526	38.000760368392
0	174751	3040196.819904995517	41.52571709237
0	174764	3040576.307708555324	95.030166625983
0	174769	3040578.213473020872	1.905764465548
0	174776	3040627.966641994664	49.753168973792
0	174783	3040693.417165959892	65.450523965228
0	174788	3040701.957551404549	8.540385444657
0	174793	3040708.868996971011	6.911445566462
0	174800	3040991.837080212399	9.798252252954
0	174807	3041064.834343276951	19.331439446668
0	174814	3041357.119056672212	29.681749413723
0	174821	3041440.047501280631	58.544010773328
0	174949	3044290.809397686081	41.39247776201
0	174956	3044317.907232825724	2.433213622749
0	174967	3044363.029358502148	40.454309873767
0	174974	3044403.325512926979	13.41595312142
0	174981	3044513.816792563341	63.475218509991
0	174990	3044609.090067311681	68.15302963906
0	175001	3044688.667920905393	79.577853593712
0	175006	3044702.876199482557	14.208278577164
0	175011	3044941.45618389293	238.57998441037
0	175016	3045021.154265548383	79.698081655453
0	175023	3045228.846607069515	45.83046105877
0	175030	3045552.934214713139	84.123446095825
0	175037	3045565.527370310401	4.017446592719
0	175046	3045607.770771976087	19.419164273467
0	175051	3045612.802443251767	5.03167127568
0	175058	3045631.480212191912	5.630614633823
0	175069	3045915.082595324558	64.271455781396
0	175076	3045984.877103115026	69.794507790468
0	175083	3046007.3738321786	22.496729063574
0	175088	3046008.964194786637	1.590362608037
0	175095	3046054.572595865931	45.608401079294
0	175102	3046105.926427439756	51.353831573825
0	175107	3046114.866523478269	8.940096038513
0	175124	3046497.863360601537	257.05779018815
0	175129	3046515.685554401707	17.82219380017
0	175134	3046523.226024358861	7.540469957154
0	175141	3046610.93942324862	87.713398889759
0	175146	3046651.03116218105	40.09173893243
0	175153	3046666.143701028863	15.112538847813
0	175158	3046676.41838933577	10.274688306907
0	175163	3046731.18311529394	54.76472595817
0	175170	3046751.346832695419	11.446375745075
0	175177	3046944.183713382954	9.388347005385
0	175234	3047964.899017119612	5.929829348616
0	175241	3048077.176454519066	2.937417747967
0	175252	3048566.0927441842	63.356464364625
0	175259	3048790.550518198267	87.421508155578
0	175266	3049037.554993540881	33.903310217754
0	175273	3049149.336030115929	51.975541711007
0	175280	3049199.522892633959	11.437558769732
0	175287	3049222.415700204749	12.599606550692
0	175294	3049255.440570880415	32.038551949202
0	175303	3049462.092560197162	124.18355816994
0	175308	3049493.465701613178	31.373141416016
0	175315	3049544.247898543708	22.097791912607
0	175322	3049856.021586766167	7.163286551063
0	175329	3049926.322662495249	28.665751761416
0	175336	3050321.383606615369	27.80313485957
0	175343	3050366.891211891011	3.885774472128
0	175350	3050463.886064886711	22.48252131575
0	175359	3050647.748582604325	124.02611723341
0	175368	3050819.684658857846	171.93607625352
0	175373	3050856.289863703107	36.605204845261
0	175378	3050872.407222593304	16.117358890197
0	175385	3051065.317656638798	26.778181858006
0	175392	3051159.164620035536	3.787640599307
0	175399	3051312.913729326149	4.321533029428
0	175408	3051761.81580951349	119.16392157624
0	175417	3051878.542236121473	116.72642660798
0	175422	3051880.134647104251	1.592410982778
0	175427	3051908.223886413694	28.089239309443
0	175436	3052028.065526788013	29.991486464267
0	175443	3052126.990794344039	98.925267556026
0	175448	3052193.022372993384	66.031578649345
0	175459	3052312.873052789818	64.436865225645
0	175464	3052331.571135743167	18.698082953349
0	175469	3052358.619571344051	27.048435600884
0	175476	3052483.429250659784	12.016633054254
0	175483	3052574.396160377513	4.383862617185
0	175490	3052796.869800193226	4.739582754354
0	175497	3052924.554252822135	70.736760256212
0	175504	3053125.687714413713	103.43024234061
0	175511	3053481.106316247816	49.620435348575
0	175518	3053520.905886103069	8.356965232434
0	175532	3054182.645397794811	22.952539846032
0	175539	3054230.344013663354	47.698615868543
0	175550	3054295.879343084576	65.535329421222
0	175555	3054327.944278813711	32.064935729135
0	175562	3054469.064842448648	10.562499965238
0	175569	3054672.55088295326	114.08487287179
0	175582	3054841.220005317829	21.913040190485
0	175609	3055294.666051036359	18.160932642588
0	175616	3055320.72509918038	9.398932338611
0	175623	3055397.447453241494	37.843850907792
0	175630	3055449.752613097217	12.943949231773
0	175641	3055769.268547883864	33.852285418619
0	175990	3062315.990226219711	38.824602880457
0	175995	3062330.403375581241	14.41314936153
0	176002	3062392.982824456088	9.336384008901
0	176009	3062417.990556229065	5.957319606437
0	176018	3062501.906766966273	2.961783343373
0	176025	3062540.17520636085	38.268439394577
0	176030	3062554.339492799893	14.164286439043
0	176045	3062772.12705740401	192.92815296515
0	176050	3062796.807424167089	24.680366763079
0	176055	3062804.759926927198	7.952502760109
0	176066	3063840.845965878142	70.30957819186
0	176080	3064186.296638185713	66.023850759554
0	176087	3064214.032165255334	27.735527069621
0	176092	3064227.622987289345	13.590822034011
0	176099	3064242.471410261953	14.848422972608
0	176104	3064300.858185519094	58.386775257141
0	176109	3064333.389299582363	32.531114063269
0	176213	3066987.63388412418	101.07011638183
0	176218	3066996.229231420991	8.595347296811
0	176223	3067020.140693729096	23.911462308105
0	176228	3067058.350632499922	38.209938770826
0	176235	3067111.832642439597	53.482009939675
0	176244	3067177.795008499221	65.962366059624
0	176249	3067181.77707532451	3.982066825289
0	176256	3067230.803109888065	49.026034563555
0	176259	3067232.183914789921	1.380804901856
0	176268	3067303.677183485849	11.224835868284
0	176277	3067438.424185380936	107.50109589658
0	176282	3067454.781024279375	16.356838898439
0	176291	3067535.448284238345	24.002879076429
0	176296	3067544.837396670332	9.389112431987
0	176303	3067759.074671552025	23.327693511012
0	176310	3067769.59536626377	8.549529506518
0	176317	3067886.987777265913	86.886892038182
0	176324	3068128.125569964173	36.775163510185
0	176333	3068612.594401552091	25.458916258692
0	176338	3068711.751948915475	99.157547363384
0	176345	3068949.688244123389	20.344690215998
0	176352	3069132.635390145992	7.526319235858
0	176361	3069523.043128321957	108.92014195284
0	176368	3069540.456615235762	17.413486913805
0	176373	3069547.551178682447	7.094563446685
0	176380	3069972.938406782699	109.97072852987
0	176387	3070024.49737950048	14.233215105506
0	176394	3070802.673858473143	49.123433760409
0	176401	3070843.524994804247	18.323844653132
0	176408	3071097.598353272497	21.122855712148
0	176415	3071177.863905320833	57.184349396786
0	176422	3071230.918378631744	3.962931805482
0	176429	3071278.960293071526	24.30293668606
0	176436	3071352.426234972699	17.000034021579
0	176443	3071540.107637042398	10.704077183438
0	176450	3071941.996219567009	28.04058004038
0	176457	3071991.768915312949	2.077668822867
0	176466	3072093.511471287385	58.822110534881
0	176471	3072097.254536880218	3.743065592833
0	176478	3072176.442452270018	77.643795676784
0	176487	3072258.690157173973	35.228913253959
0	176492	3072300.383633308241	41.693476134268
0	176501	3072365.526508376368	28.475003089779
0	176506	3072476.974527879034	111.44801950267
0	176532	3073001.623270852697	8.812219716162
0	176543	3073580.543917411719	6.143645502844
0	176550	3073719.236666785467	14.244485794074
0	176557	3073767.793374800894	30.566111751023
0	176564	3073932.807860434924	4.985632633566
0	176687	3076807.694191681566	48.963200800828
0	176693	3076863.133864675195	55.439672993629
0	176698	3076866.179232643235	3.04536796804
0	176704	3076872.196551431778	6.017318788543
0	176709	3076891.473341872136	19.276790440358
0	176720	3076986.816067908205	95.342726036069
0	176725	3076991.211373134279	4.395305226074
0	176730	3077000.027547518184	8.816174383905
0	176735	3077045.598063057436	45.570515539252
0	176740	3077112.993353622633	67.395290565197
0	176747	3077310.135236006069	49.934953345261
0	176758	3078124.322120681268	68.975529620236
0	176776	3079095.036844278974	143.08386821591
0	176783	3079203.167682204136	4.589676892294
0	176790	3079335.795320745351	23.183478359832
0	176797	3079563.753058227274	16.393364640167
0	176804	3079705.522507782651	32.839006042786
0	176815	3080080.621683651736	21.221576782801
0	176822	3080153.270709917461	28.494046072101
0	176831	3080517.087469512452	65.086945544977
0	176836	3080527.011509654701	9.924040142249
0	176843	3080617.347238966749	19.159615743613
0	176850	3080680.280901896534	3.058584224404
0	176857	3080760.796698785858	13.33670392905
0	176866	3081085.12016959182	59.522521872265
0	176871	3081153.75341472005	68.63324512823
0	176878	3081215.69873419685	6.381569270868
0	176885	3081372.771795498935	30.462577983006
0	176894	3081694.242933473644	58.999906479779
0	176901	3081811.449044651373	117.20611117773
0	176908	3081861.364542778327	49.915498126954
0	176913	3081896.583418216282	35.218875437955
0	176920	3082107.578223357348	21.849108746813
0	176929	3082381.757549243361	24.063408634624
0	176934	3082413.986668299656	32.229119056295
0	176941	3082964.638793793353	24.114592470552
0	176948	3083347.865499370359	2.861579924408
0	176971	3084294.572599714589	4.740501169085
0	176980	3084394.125705426119	99.55310571153
0	176985	3084398.079074047672	3.953368621553
0	177004	3084950.56996894481	13.630340998381
0	177013	3085096.690540604399	15.122642394693
0	177020	3085164.260561028665	67.570020424266
0	177025	3085174.2309925533	9.970431524635
0	177032	3085370.933202530981	13.4400501283
0	177039	3085431.188438250827	14.755946710305
0	177046	3085475.6786752715	34.974267731035
0	177057	3086016.14481288642	73.49914620235
0	177066	3086114.606847359887	50.980821446323
0	177071	3086140.081218160391	25.474370800504
0	177078	3086200.785339828822	27.146966251174
0	177085	3086405.01155368907	166.83029212959
0	177092	3086458.981580599994	3.419475758094
0	177099	3086618.134573834264	8.594054041306
0	177106	3086808.234145042534	9.93821875853
0	177117	3086940.045184781118	38.741841644046
0	177122	3086958.106865080428	18.06168029931
0	177127	3086973.66954343	15.562678349572
0	177134	3087247.320224000845	142.30100276242
0	177141	3087353.367750925744	40.176212047597
0	177148	3087525.361736646658	95.127915527601
0	177157	3087610.702222847235	58.540504406034
0	177166	3087623.476872316064	12.774649468829
0	177173	3087677.707115229471	54.230242913407
0	177178	3087710.005845305564	32.298730076093
0	177185	3087807.257789190743	97.251943885179
0	177192	3087890.260345726688	83.002556535945
0	177199	3087919.197657498386	28.937311771698
0	177204	3087954.120417808246	34.92276030986
0	177211	3088173.798584080408	22.122629599312
0	177218	3088222.6525052133	26.806380674592
0	177225	3088514.801422204357	6.976476795488
0	177232	3088728.435846581328	12.719998742017
0	177323	3090579.817460446624	7.942315111918
0	177329	3090588.316739909061	8.499279462437
0	177334	3090602.59456155427	14.277821645209
0	177345	3090681.687752208547	79.093190654277
0	177350	3090718.891791030116	37.204038821569
0	177355	3090884.171367895135	165.27957686502
0	177362	3090935.880723827591	47.174556770491
0	177370	3091025.261144684983	23.710868047935
0	177422	3091899.808249121937	7.318476943446
0	177427	3091905.971857487323	6.163608365386
0	177434	3091951.119739815401	45.147882328078
0	177439	3091969.095495494166	17.975755678765
0	177450	3092092.538412468925	80.694363428402
0	177457	3092190.884676612502	10.664832079122
0	177464	3092397.367274410882	5.136030861002
0	177471	3092503.994921995738	47.132172097416
0	177479	3092646.760109502741	63.916356064257
0	177487	3092763.683924796021	25.977182493913
0	177518	3093287.666200629862	19.418435160452
0	177523	3093318.607030585684	30.940829955822
0	177534	3093369.51857739533	50.911546809646
0	177549	3093504.620541639623	135.10196424429
0	177604	3094263.117922175023	1.161844801567
0	177609	3094276.281388832005	13.163466656982
0	177614	3094284.306241769706	8.024852937701
0	177619	3094289.520720762294	5.214478992588
0	177624	3094324.133729415825	34.613008653531
0	177629	3094372.756436380657	48.622706964832
0	177646	3094515.184292928143	74.827065876362
0	177653	3094560.744509065074	45.560216136931
0	177658	3094573.898782801117	13.154273736043
0	177665	3094666.097504225707	92.19872142459
0	177670	3094668.33029626144	2.232792035733
0	177675	3094672.798660135171	4.468363873731
0	177682	3094884.417359805468	83.00132946325
0	177689	3094897.560449866793	2.640467508153
0	177696	3095014.92212785232	71.284765453041
0	177703	3095089.066272847917	6.649363917792
0	177861	3098363.260290172593	27.43566364938
0	177869	3098401.024586028896	37.764295856303
0	177874	3098440.287162973625	39.262576944729
0	177881	3098447.063238756374	6.776075782749
0	177884	3098447.231414189424	0.16817543305
0	177891	3098462.645654894594	15.41424070517
0	177898	3098542.447965878627	79.802310984033
0	177903	3098557.342139320549	14.894173441922
0	177908	3098567.964678808755	10.622539488206
0	177919	3098877.614804049834	41.993266041707
0	177926	3099140.234969729147	2.165173704381
0	177942	3099577.009044718638	43.210059091769
0	177951	3099823.099629432505	61.474584192857
0	177956	3099893.553631713119	70.454002280614
0	177963	3099948.521779576272	21.226202004477
0	177970	3100088.138265403526	29.137635811389
0	177977	3100369.280465743836	42.080711051545
0	177984	3100793.648319314268	116.27624767096
0	177991	3100863.981972790826	12.377398249558
0	178000	3101131.873567718471	43.391598150316
0	178007	3101765.383229568758	9.640202220883
0	178014	3101864.64619855351	29.985012653003
0	178171	3104603.203575974587	79.619306423218
0	178399	3110141.113904009615	43.072402909828
0	178404	3110150.083096069244	8.969192059629
0	178411	3110172.384085728517	22.300989659273
0	178416	3110236.354330079459	63.970244350942
0	178421	3110276.178497832888	39.824167753429
0	178426	3110303.142090194746	26.963592361858
0	178437	3110490.111079666121	32.360134736304
0	178444	3110614.62092114163	98.163797395717
0	178453	3110659.223255445745	21.764732763789
0	178458	3110662.538802352598	3.315546906853
0	178469	3110819.310499019828	102.23331058441
0	178474	3110827.383631729395	8.073132709567
0	178479	3110829.517862052231	2.134230322836
0	178486	3110938.230046766296	22.730986527478
0	178493	3111029.628979198018	46.549994376715
0	178502	3111203.602297958191	54.204200865671
0	178507	3111240.734515260384	37.132217302193
0	178514	3111308.19249663568	15.606458797239
0	178521	3111617.29800298295	49.7357656304
0	178530	3111826.08922098128	117.16799020065
0	178537	3111892.347150340778	66.257929359498
0	178542	3111907.353050833745	15.005900492967
0	178551	3111918.107251996783	7.177501362301
0	178556	3111977.806542972831	59.699290976048
0	178563	3112036.905196804399	3.239306350076
0	178570	3112054.489198094448	14.750290692627
0	178577	3112135.386887303163	18.197783307711
0	178588	3112177.023128172776	30.4644163156
0	178595	3112222.924113845831	45.900985673055
0	178602	3112289.711866473105	66.787752627274
0	178607	3112294.904438917848	5.192572444743
0	178612	3112314.451292610737	19.546853692889
0	178619	3112410.464642233906	57.005817127068
0	178628	3112500.460494445559	35.345354785612
0	178633	3112587.171751721596	86.711257276037
0	178640	3112676.592449064473	4.064538359882
0	178651	3112919.817604987144	73.66893690743
0	178829	3115985.922180117994	1.753197189153
0	178834	3116080.022640944373	94.100460826379
0	178839	3116087.13540142618	7.112760481807
0	178846	3116220.547214980007	4.289111289939
0	178853	3116285.134627446629	13.516173758918
0	178860	3116346.983254884818	12.804256641821
0	178873	3116441.120029301908	78.609123920952
0	178878	3116476.062617261998	34.94258796009
0	178885	3116570.248261879913	3.154582991542
0	178892	3116640.060068434545	35.808706943617
0	178899	3116692.177266168119	14.378661298566
0	178912	3116841.14081401736	124.79011609281
0	178919	3116874.879746308135	33.738932290775
0	178924	3116878.235464805741	3.355718497606
0	178929	3116889.086471728781	10.85100692304
0	178934	3116897.011993155836	7.925521427055
0	178941	3117051.22852059219	88.679554274832
0	178948	3117111.519929873839	4.91196998303
0	179027	3119192.473654268346	4.041310357719
0	179032	3119286.519220280169	94.045566011823
0	179043	3119372.924797150546	14.585188477835
0	179050	3119638.345740369529	119.50020134161
0	179061	3119748.521008569025	69.037121997821
0	179066	3119843.405248064006	94.884239494981
0	179071	3119850.851275276241	7.446027212235
0	179080	3119893.019137151646	28.013340626062
0	179087	3120023.625154867756	130.60601771611
0	179092	3120031.462381089874	7.837226222118
0	179101	3120341.577230114805	34.893188799204
0	179106	3120437.21226836726	95.635038252455
0	179113	3120687.448352138282	15.695663362491
0	179120	3120935.307572803816	25.40209788275
0	179127	3121047.730581533172	66.799777938506
0	179136	3121216.663396965043	61.276748181566
0	179141	3121284.604498846958	67.941101881915
0	179148	3121522.134703926304	23.099878702746
0	179155	3121802.570042175983	13.084192647458
0	179162	3121937.862125600601	38.442391709769
0	179175	3122139.036246601824	123.36821369227
0	179180	3122166.777971324178	27.741724722354
0	179185	3122168.121088138262	1.343116814084
0	179190	3122183.473846416724	15.352758278462
0	179199	3122461.33687444575	75.013958113186
0	179204	3122474.181408942373	12.844534496623
0	179211	3122795.960239475292	21.942100018432
0	179218	3122968.540387282896	9.086951829427
0	179227	3123089.80023986616	43.486408457776
0	179230	3123090.066660019881	0.266420153721
0	179241	3123449.911757926553	45.066260807894
0	179248	3123662.888477002502	1.448678252877
0	179255	3123841.657459858012	21.105707906813
0	179262	3123908.89281843703	18.201021283569
0	179271	3124156.386609017986	33.682953750397
0	179276	3124178.307522483988	21.920913466002
0	179285	3124414.999212594633	15.18583888513