version 2
run Simulations-4-20191218-11:09:12-65753
attr configname Simulations
attr datetime 20191218-11:09:12
attr experiment Simulations
attr inifile omnetpp.ini
attr iterationvars "$seed=7, $0=1700"
attr iterationvarsf seed=7,1700-
attr measurement "$seed=7, $0=1700"
attr network WifiCelNetPassiveQueue
attr processid 65753
attr repetition 0
attr replication #0
attr resultdir results/Simulations/omnet
attr runnumber 4
attr seedset 7
itervar seed 7
param **.numJobs 10000
param *.OFFLOAD.deadline exponential(1700s)
param *.source.interArrivalTime exponential(120s)
param *.WIFI.serviceTime exponential(40s)
param *.CELL.serviceTime exponential(400s)
param *.OFFLOAD.switchToWi exponential(1524s)
param *.OFFLOAD.switchToCel exponential(3120s)
param *.LOCAL.serviceTime exponential(5s)
param *.REMOTE.serviceTime exponential(1s)

vector 0 WifiCelNetPassiveQueue.WIFI serviceTime:vector ETV
attr interpolationmode none
attr title "wifi Service, vector"
attr unit s
vector 1 WifiCelNetPassiveQueue.WIFI responseTime:vector ETV
attr interpolationmode none
attr title "Response Time, vector"
attr unit s
vector 2 WifiCelNetPassiveQueue.REMOTE serviceTime:vector ETV
attr interpolationmode none
attr title "wifi Service, vector"
attr unit s
vector 3 WifiCelNetPassiveQueue.REMOTE responseTime:vector ETV
attr interpolationmode none
attr title "Response Time, vector"
attr unit s
vector 4 WifiCelNetPassiveQueue.sink lifeTime:vector ETV
attr interpolationmode none
attr title "lifetime of arrived jobs, vector"
attr unit s
vector 5 WifiCelNetPassiveQueue.OFFLOAD queueLength:vector ETV
attr interpolationmode sample-hold
attr title "queue length, vector"
vector 6 WifiCelNetPassiveQueue.OFFLOAD storeCelTime:vector ETV
attr interpolationmode none
attr title "Time in Cell, vector"
attr unit s
vector 7 WifiCelNetPassiveQueue.OFFLOAD storeDeadline:vector ETV
attr interpolationmode none
attr title "deadline, vector"
attr unit s
vector 8 WifiCelNetPassiveQueue.CELL serviceTime:vector ETV
attr interpolationmode none
attr title "wifi Service, vector"
attr unit s
vector 9 WifiCelNetPassiveQueue.CELL responseTime:vector ETV
attr interpolationmode none
attr title "Response Time, vector"
attr unit s
vector 10 WifiCelNetPassiveQueue.LOCAL serviceTime:vector ETV
attr interpolationmode none
attr title "wifi Service, vector"
attr unit s
vector 11 WifiCelNetPassiveQueue.LOCAL responseTime:vector ETV
attr interpolationmode none
attr title "Response Time, vector"
attr unit s
vector 12 WifiCelNetPassiveQueue.OFFLOAD storeWifiTime:vector ETV
attr interpolationmode none
attr title "Time in Wifi, vector"
attr unit s
vector 13 WifiCelNetPassiveQueue.REMOTE queueLength:vector ETV
attr interpolationmode sample-hold
attr title "queue length, vector"
vector 14 WifiCelNetPassiveQueue.LOCAL queueLength:vector ETV
attr interpolationmode sample-hold
attr title "queue length, vector"
0	173723	3000140.573936921094	62.467221405311
0	173732	3000150.682500514133	9.927840886383
0	173737	3000180.044956386067	29.362455871934
0	173744	3000231.68474688039	40.18421678995
0	173753	3000335.307518111717	77.284445205133
0	173758	3000378.180673145475	42.873155033758
0	173765	3000509.24706549491	48.337813770848
0	173774	3000810.407398863678	23.601169602143
0	173779	3000826.958118335344	16.550719471666
0	173786	3000859.389742543281	24.722309863287
0	173793	3000905.633619785902	36.295892123643
0	173800	3000930.957070167475	9.117254753861
0	173807	3001042.94412767627	18.987654215024
0	173814	3001176.965907293367	12.617915577432
0	173821	3001317.544412185819	104.81613866694
0	173830	3001371.45066588341	45.139575688079
0	173835	3001424.280261834477	52.829595951067
0	173842	3001793.723136846338	54.255998796094
0	173849	3001953.703627508868	20.84913271614
0	173864	3002259.099689072056	153.08214432429
0	173869	3002312.513785861621	53.414096789565
0	173874	3002325.031654640543	12.517868778922
0	173879	3002430.918714532473	105.88705989193
0	173884	3002452.326387870847	21.407673338374
0	173895	3002582.70949929742	52.421951638314
0	173900	3002643.463752947591	60.754253650171
0	173905	3002647.094449440541	3.63069649295
0	173912	3002839.846857589917	96.763551355522
0	173919	3002922.603563358265	9.411738024668
0	173926	3002985.070197892865	17.247747937921
0	173933	3003032.764123294379	1.545113528058
0	173940	3003338.589248296876	23.448591384848
0	173947	3003369.138572751435	21.527560092108
0	173954	3003498.821836311421	12.241421959309
0	174094	3006616.602460143916	68.053635936168
0	174099	3006685.530106085686	68.92764594177
0	174104	3006697.480491758305	11.950385672619
0	174111	3006710.214970151687	12.734478393382
0	174116	3006710.971064156904	0.756094005217
0	174121	3006727.713651336923	16.742587180019
0	174126	3006739.654750183173	11.94109884625
0	174131	3006761.538465321598	21.883715138425
0	174144	3007021.241595789548	81.548068788432
0	174149	3007083.819796734419	62.578200944871
0	174156	3007260.533778084937	51.903538931659
0	174163	3007303.454541983649	8.890541442807
0	174170	3007379.170859389697	20.322049276127
0	174181	3007534.812972278359	106.71001736635
0	174186	3007562.586298626466	27.773326348107
0	174191	3007567.899536637188	5.313238010722
0	174198	3007659.586177971714	37.176240287229
0	174207	3007831.162216269782	23.948663319739
0	174212	3007834.619645124678	3.457428854896
0	174221	3008007.831600402266	75.49684640747
0	174228	3008024.236138398877	16.404537996611
0	174235	3008104.447920382922	80.211781984045
0	174240	3008122.621685400307	18.173765017385
0	174247	3008191.339911103703	24.74080794799
0	174254	3008297.696088594744	15.460877863894
0	174261	3008408.288029293105	21.147520301634
0	174270	3008457.884509362762	36.417961698355
0	174277	3008508.640080445987	50.755571083225
0	174282	3008613.967024098527	105.32694365254
0	174289	3008656.772239899086	15.608901863792
0	174300	3008754.998867243525	94.62624509376
0	174305	3008814.332739697677	59.333872454152
0	174310	3008927.805595662297	113.47285596462
0	174321	3008984.127143865437	47.448451273498
0	174326	3009100.079348154396	115.95220428896
0	174331	3009119.258040331572	19.178692177176
0	174340	3009257.88165533649	30.471613205369
0	174345	3009312.101129011342	54.219473674852
0	174352	3009386.045037819442	4.699648454025
0	174359	3009934.81034745273	46.952799381832
0	174366	3009959.202814132533	9.118104415475
0	174373	3010256.291221533933	81.668011615093
0	174380	3010547.877645090969	10.711168212334
0	174387	3010686.197373979369	55.902216032823
0	174394	3010737.457805194512	0.814043567883
0	174401	3010929.55269733994	37.44014869301
0	174408	3010982.73418259252	33.298205064953
0	174415	3011030.298783594212	14.883978698044
0	174426	3011146.021317821868	74.909193966306
0	174431	3011183.711410568403	37.690092746535
0	174436	3011187.720730924252	4.009320355849
0	174445	3011254.871361798207	53.752869271316
0	174452	3011318.740882426772	63.869520628565
0	174457	3011328.250295332217	9.509412905445
0	174464	3011447.801054876906	7.750394199906
0	174471	3011760.521638579515	19.216024782543
0	174478	3011819.505722531356	17.473335884164
0	174485	3011885.601328711527	6.846223991032
0	174492	3011915.535471524692	9.107046866965
0	174499	3012002.037375385784	15.140499383889
0	174506	3012405.392673140433	13.700010495793
0	174513	3012622.904121190436	30.304873832138
0	174520	3012764.169709161625	0.509986665211
0	174707	3016446.869055523411	41.472554211128
0	174712	3016486.376601225717	39.507545702306
0	174720	3016504.625327854954	18.248726629237
0	174726	3016566.306191754931	61.680863899977
0	174731	3016584.237294818209	17.931103063278
0	174738	3016658.95569522759	74.718400409381
0	174743	3016679.867493772974	20.911798545384
0	174748	3016702.885969924285	23.018476151311
0	174753	3016703.699861825929	0.813891901644
0	174760	3016716.377254534372	12.677392708443
0	174765	3016739.381469038586	23.004214504214
0	174778	3017016.37879400419	154.1955506095
0	174784	3017086.761378624213	70.382584620023
0	174821	3018380.061163285252	95.745008992297
0	174836	3018487.417833800546	107.35667051529
0	174856	3018936.832455973902	9.750660544008
0	174861	3018946.478546253133	9.646090279231
0	174866	3019019.61266101794	73.134114764807
0	174871	3019021.643549473083	2.030888455143
0	174876	3019034.396701123552	12.753151650469
0	174887	3019170.645074377629	136.24837325408
0	174896	3019275.914914162834	105.2698397852
0	174901	3019321.792756638128	45.877842475294
0	174906	3019338.263785622771	16.471028984643
0	174909	3019341.292532885466	3.028747262695
0	174918	3019428.922287696785	5.232262067832
0	174927	3019487.969746067728	54.210874752075
0	174932	3019494.876230319863	6.906484252135
0	174939	3019548.878239422612	5.037959835011
0	174946	3019721.352145273252	17.148415928177
0	174955	3020189.491577709065	36.727503873388
0	174960	3020231.95210054675	42.460522837685
0	174967	3020379.827564420434	32.550711970956
0	174995	3021119.412516871875	18.877761478083
0	175002	3021205.305659251076	85.893142379201
0	175007	3021286.436776968264	81.131117717188
0	175018	3021371.733187187805	3.245839787379
0	175025	3021560.951500117755	1.535186424565
0	175032	3021683.618531805858	3.402984800377
0	175066	3022520.122306012696	6.20609992272
0	175071	3022535.782880171716	15.66057415902
0	175076	3022545.564281333805	9.781401162089
0	175079	3022546.472103392026	0.907822058221
0	175086	3022563.122922998614	16.650819606588
0	175093	3022696.968901939908	133.84597894129
0	175098	3022742.276657716121	45.307755776213
0	175105	3022871.892446123193	60.211364758842
0	175118	3023226.945758482825	73.211638840172
0	175123	3023320.59971823382	93.653959750995
0	175130	3023343.876770035317	9.978396307692
0	175137	3023450.519847493506	51.87685929586
0	175144	3023495.91458738621	31.272444954076
0	175151	3023640.767982075638	46.442336954596
0	175159	3023727.007173886288	13.31179190382
0	175220	3025358.821257940442	40.72194701233
0	175225	3025439.562193291548	80.740935351106
0	175230	3025507.319307311318	67.75711401977
0	175238	3025611.769136581926	104.44982927061
0	175247	3025680.018327518681	68.249190936755
0	175252	3025707.558924478147	27.540596959466
0	175257	3025722.869128759688	15.310204281541
0	175262	3025738.773993687679	15.904864927991
0	175265	3025739.307619495208	0.533625807529
0	175274	3025808.315550647765	17.410098941796
0	175281	3026001.747310886812	7.494060811436
0	175292	3026351.227135120245	47.017849720312
0	175299	3026390.459779611828	15.010465696794
0	175306	3026592.859166225692	17.716312225751
0	175315	3026742.161852703017	45.66466372941
0	175322	3026794.099446624271	51.937593921254
0	175331	3026852.843848688103	58.744402063832
0	175336	3026911.940509189212	59.096660501109
0	175343	3026988.50088807195	76.560378882738
0	175348	3027028.709649758308	40.208761686358
0	175355	3027186.145538100502	0.757441903028
0	175362	3027270.712538449283	0.226771933022
0	175369	3027520.194862781084	72.573479147652
0	175376	3027588.759780054012	47.817127365966
0	175383	3027850.638422138897	32.900239837453
0	175422	3029120.915086911801	11.459468006656
0	175431	3029149.178982848232	28.263895936431
0	175436	3029206.682444396442	57.50346154821
0	175445	3029371.874132359478	165.19168796304
0	175450	3029375.344609420052	3.470477060574
0	175455	3029391.913460280104	16.568850860052
0	175464	3029496.360251734133	50.264696029801
0	175469	3029528.086872140111	31.726620405978
0	175476	3029602.96962790647	7.869240974607
0	175483	3029677.680300824419	12.758693467663
0	175490	3029802.87312702389	37.957367759182
0	175499	3030058.482289182482	46.825152408217
0	175510	3030177.516204233084	119.0339150506
0	175515	3030194.971515893623	17.455311660539
0	175520	3030228.196867884858	33.225351991235
0	175525	3030241.386962187425	13.190094302567
0	175532	3030325.915712814303	11.676930386251
0	175541	3030433.075059441491	97.7681370307
0	175546	3030465.104322150573	32.029262709082
0	175557	3030667.883723935858	18.77547468313
0	175562	3030686.131647520814	18.247923584956
0	175567	3030700.002316644285	13.870669123471
0	175574	3030806.577078580603	30.590373495365
0	175581	3031049.065970365747	22.088454145196
0	175588	3031121.503009490387	38.673997658883
0	175595	3031347.155193237109	8.226152163807
0	175602	3031370.162890162974	19.102599999543
0	175611	3031573.645268228182	34.356102941627
0	175616	3031589.46550837231	15.820240144128
0	175623	3031687.383102395121	26.63006239374
0	175630	3031790.552405242413	21.343687257862
0	175637	3031814.631610614143	24.073596137623
0	175648	3032292.392654092993	140.52771106522
0	175657	3032370.387376259727	77.994722166734
0	175691	3033150.947373538638	77.266047401578
0	175694	3033151.656792954699	0.709419416061
0	175701	3033154.47057711198	2.813784157281
0	175859	3038063.753335880305	57.620381826887
0	175864	3038077.461412103261	13.708076222956
0	175869	3038098.219140944732	20.757728841471
0	175876	3038174.409301423393	76.190160478661
0	175881	3038184.583831449845	10.174530026452
0	175890	3038234.475643504688	49.891812054843
0	175896	3038302.076214761632	67.600571256944
0	175901	3038333.386312242575	31.310097480943
0	175906	3038416.098396529864	82.712084287289
0	175911	3038456.970272913545	40.871876383681
0	175920	3038530.992811350726	74.022538437181
0	175925	3038553.886818592118	22.894007241392
0	175930	3038557.739029687602	3.852211095484
0	175935	3038590.903053493282	33.16402380568
0	175944	3038624.786463000467	33.883409507185
0	175951	3038639.647008782959	14.860545782492
0	175956	3038678.913413653251	39.266404870292
0	175963	3038767.052067963385	7.127128341481
0	175970	3039376.30837809823	3.128108361695
0	175979	3039411.28004295767	5.753833652915
0	175984	3039435.366921793753	24.086878836083
0	175991	3039495.198679916349	25.772845653416
0	176000	3039552.579921571493	48.917414121681
0	176005	3039576.40893006634	23.829008494847
0	176014	3039844.611493728992	22.282248552292
0	176019	3039913.088398296978	68.476904567986
0	176026	3040341.88776200914	30.056810637779
0	176033	3040467.578032970785	69.029673848747
0	176042	3040519.842710375152	37.412896268185
0	176047	3040531.154520384871	11.311810009719
0	176056	3040806.107707672175	46.798179162731
0	176065	3040854.214040646301	48.106332974126
0	176072	3041004.102819361968	149.88877871567
0	176077	3041067.916775396238	63.81395603427
0	176084	3041082.726450046018	14.80967464978
0	176089	3041117.786149543561	35.059699497543
0	176096	3041269.46189701174	35.423055799559
0	176103	3041377.634695009494	43.263578851014
0	176110	3041526.567641269767	7.998259879145
0	176117	3041714.516697851503	2.5041340944
0	176124	3041776.982047154921	16.392214970049
0	176131	3041913.254008439603	4.071997770631
0	176138	3042335.549844491331	7.992678416574
0	176146	3042665.61333002718	65.93260243793
0	176154	3042883.973337804199	28.124591767041
0	176161	3042935.655365926014	26.955935899613
0	176168	3043156.011524553983	51.341212545089
0	176175	3043224.874480164335	2.381483216963
0	176182	3043265.865987073983	15.527062134684
0	176189	3043508.23604150995	54.087744775406
0	176196	3043614.72737102011	94.787213610833
0	176205	3043767.260421990347	78.657845461092
0	176212	3043832.419005801783	65.158583811436
0	176217	3043838.12698621138	5.707980409597
0	176226	3044081.326871943941	50.411877482465
0	176231	3044088.657065811166	7.330193867225
0	176238	3044189.367701273638	56.414728834408
0	176245	3044228.584455612184	31.528444527501
0	176256	3044361.596603340669	103.12723248676
0	176261	3044377.413671074255	15.817067733586
0	176268	3044514.605745362278	137.19207428802
0	176275	3044633.580010919442	118.97426555716
0	176278	3044634.025881668701	0.445870749259
0	176287	3044723.170053782142	8.290211017542
0	176294	3044820.542867091168	17.085088535867
0	176301	3045175.198091048183	46.258939724486
0	176308	3045266.838340514578	3.261190258423
0	176315	3045393.034036446437	48.377538177101
0	176322	3045531.197283746816	5.369081176318
0	176333	3045643.711872141143	103.25992304344
0	176338	3045654.860307734359	11.148435593216
0	176347	3045684.730094477314	29.869786742955
0	176352	3045689.05195796619	4.321863488876
0	176357	3045702.698654918418	13.646696952228
0	176364	3045746.768587142225	7.161480764192
0	176373	3045929.977235831507	110.82716802671
0	176378	3045943.287357379725	13.310121548218
0	176385	3046360.105358088114	11.397446069772
0	176394	3046490.657773602811	81.851968665404
0	176399	3046506.623546997958	15.965773395147
0	176406	3046742.888660160864	13.253018999888
0	176413	3046979.998021355168	10.029524849486
0	176422	3047248.137514178135	213.4899682616
0	176425	3047248.21382623993	0.076312061795
0	176434	3047458.559225217758	3.363741999905
0	176441	3047512.09040041735	38.643417527783
0	176448	3047670.21085204149	48.062649770223
0	176455	3047792.674949910607	5.651054984479
0	176462	3047999.877486297069	50.81401719006
0	176469	3048260.287575288655	105.92061991299
0	176476	3048356.880879142008	70.104085202829
0	176483	3048486.494222003471	48.417311759323
0	176490	3048981.333884116527	3.142817265555
0	176497	3049080.56958086624	42.970619942008
0	176504	3049220.855562012649	68.259121801062
0	176511	3049567.225222695316	33.460202068712
0	176518	3049625.888256471497	31.274250664653
0	176527	3049692.130106277188	49.330690668519
0	176532	3049756.86666275327	64.736556476082
0	176541	3049881.730357434124	36.432777350519
0	176550	3050046.814847120713	165.08448968659
0	176555	3050050.516648334623	3.70180121391
0	176560	3050053.102683801667	2.586035467044
0	176567	3050071.070368405698	10.383938291719
0	176574	3050092.35459444103	9.752440359469
0	176581	3050230.769146452541	42.114797057453
0	176588	3050313.570428562326	35.995850484019
0	176595	3050334.024667534628	14.20070498519
0	176602	3050463.332301794999	34.214907927396
0	176609	3050586.695929237148	16.563004536992
0	176616	3050720.729916366702	90.915070860366
0	176634	3050895.076476994323	59.964672395322
0	176807	3055444.311984805925	14.168176115498
0	176814	3055458.303343142234	13.991358336309
0	176821	3055538.428812372029	80.125469229795
0	176826	3055552.007003676946	13.578191304917
0	176831	3055579.020453800408	27.013450123462
0	176840	3055602.777902690393	23.757448889985
0	176846	3055795.484693030386	192.70679033999
0	176851	3055818.731248260227	23.246555229841
0	176856	3055839.069463116564	20.338214856337
0	176861	3055841.619702018706	2.550238902142
0	176866	3055855.374838630594	13.755136611888
0	176871	3055874.640627797914	19.26578916732
0	176876	3055890.292605242277	15.651977444363
0	176881	3055904.662645050904	14.370039808627
0	176886	3055960.89885025794	56.236205207036
0	176889	3055961.078748506432	0.179898248492
0	176898	3056029.121126434423	28.218158660806
0	176909	3056313.480699834112	150.31144484705
0	176916	3056333.036942217097	19.556242382985
0	176921	3056349.964885331239	16.927943114142
0	176926	3056410.164916882785	60.200031551546
0	176933	3056584.409182838849	44.00050278386
0	176940	3057063.885201779097	86.616142239086
0	176947	3057109.848481403743	2.820777977033
0	176954	3057499.49065372517	55.29883312641
0	176961	3057860.087464559186	57.729325892318
0	176968	3057954.626481713842	24.139412598426
0	176975	3058053.99146466247	3.738012490042
0	176982	3058172.042177275268	33.345225015506
0	176989	3058318.708602169664	106.66565640481
0	176996	3058342.61737249868	8.555520182357
0	177005	3058544.871941899429	99.739017281226
0	177012	3058566.571968143301	21.700026243872
0	177017	3058575.183192582213	8.611224438912
0	177024	3058584.665339801285	0.134286220538
0	177031	3058891.573571352772	96.755650677361
0	177040	3059200.537941502921	57.008502239269
0	177047	3059263.43217858445	62.894237081529
0	177052	3059290.556923866884	27.124745282434
0	177059	3059544.519301384638	22.459860055954
0	177066	3059850.03083113487	67.808280848941
0	177073	3060374.161122159534	16.18740738003
0	177080	3060542.741808695201	1.212361548147
0	177087	3060577.77913783718	21.822308074028
0	177094	3060694.691171073182	33.828057903009
0	177101	3060722.617891465388	1.861462378134
0	177108	3061057.023232725249	95.025038508307
0	177115	3061153.998646469873	6.716582251396
0	177122	3061336.564266428101	13.347708597633
0	177129	3061492.01283030834	16.943425224243
0	177136	3062015.094619705742	19.194498250185
0	177145	3062260.638207833908	42.245604707152
0	177150	3062265.19652881166	4.558320977752
0	177157	3062385.171831948949	26.882934465447
0	177164	3062419.814135834929	20.431790045282
0	177171	3062449.605965185969	9.535267002504
0	177184	3062618.887893645065	89.742405112911
0	177189	3062647.896402024308	29.008508379243
0	177194	3062650.027177955931	2.130775931623
0	177201	3062679.470069526187	29.442891570256
0	177206	3062824.036935702068	144.56686617588
0	177215	3062981.728090976032	102.08052428346
0	177220	3063018.275906525059	36.547815549027
0	177231	3063190.426454146748	66.840433110884
0	177236	3063232.943689947367	42.517235800619
0	177241	3063242.250927363237	9.30723741587
0	177250	3063310.562962536316	25.177431562761
0	177255	3063323.948438896138	13.385476359822
0	177346	3065416.001332407066	21.103641618951
0	177351	3065425.747338929863	9.746006522797
0	177356	3065433.379308314696	7.631969384833
0	177363	3065455.903596545187	22.524288230491
0	177368	3065498.871706769637	42.96811022445
0	177373	3065504.535066092076	5.663359322439
0	177378	3065518.144491257364	13.609425165288
0	177385	3065558.072507965961	39.928016708597
0	177390	3065577.352299079913	19.279791113952
0	177397	3065609.961630512613	32.6093314327
0	177402	3065615.837425176494	5.875794663881
0	177409	3065692.956026643933	0.376333225487
0	177416	3065855.881247924519	66.982977976725
0	177429	3065997.638484777307	56.999811298712
0	177434	3066002.899006033359	5.260521256052
0	177441	3066122.458851810656	104.49492789439
0	177448	3066197.321636977093	0.53041960305
0	177489	3067303.504602875855	12.717804685851
0	177498	3067368.289486699807	64.784883823952
0	177503	3067403.743939252742	35.454452552935
0	177508	3067425.115532296258	21.371593043516
0	177517	3067578.155966168846	153.04043387259
0	177526	3067671.871245849129	93.715279680283
0	177531	3067686.292109653917	14.420863804788
0	177536	3067823.573556343294	137.28144668938
0	177543	3067835.184562169474	11.61100582618
0	177548	3067909.26710825293	74.082546083456
0	177557	3068115.347794109378	85.08479562488
0	177562	3068155.034205968349	39.686411858971
0	177571	3068243.457376584489	40.097110533421
0	177576	3068431.936066767301	188.47869018281
0	177583	3068541.648428865389	47.501834223882
0	177592	3068641.355110429438	62.56492204596
0	177597	3068650.553106530815	9.197996101377
0	177608	3068837.506828061163	97.893846069377
0	177613	3068940.268611879625	102.76178381846
0	177620	3069016.073213110481	75.804601230856
0	177627	3069095.157384895357	79.084171784876
0	177632	3069112.229318643673	17.071933748316
0	177641	3069257.234653798065	129.71743385904
0	177646	3069279.637805000315	22.40315120225
0	177657	3069775.655840070054	70.742661620013
0	177666	3069865.091157698766	89.435317628712
0	177671	3069880.489167393441	15.398009694675
0	177678	3069912.891620931906	32.402453538465
0	177685	3069921.863953917618	8.972332985712
0	177692	3069958.750358943655	36.886405026037
0	177697	3069963.952207127406	5.201848183751
0	177708	3069989.93821078135	25.986003653944
0	177713	3070049.538648730148	59.600437948798
0	177718	3070067.617485426794	18.078836696646
0	177725	3070083.053439129064	15.43595370227
0	177732	3070126.881545474129	43.828106345065
0	177737	3070133.37739923007	6.495853755941
0	177746	3070261.775135242042	103.14086334353
0	177751	3070278.053174159602	16.27803891756
0	177764	3070683.488872774076	122.89491003317
0	177769	3070688.539103305338	5.050230531262
0	177774	3070744.727424375771	56.188321070433
0	177779	3070754.279237691879	9.551813316108
0	177786	3070874.284450914282	104.78953168172
0	177793	3070933.248363776436	11.599540374355
0	177804	3071142.363631657877	38.282496471371
0	177809	3071144.183333015491	1.819701357614
0	177814	3071150.458997029929	6.275664014438
0	177822	3071274.771368280368	123.19754655096
0	177831	3071478.204576398506	35.80355587193
0	178048	3076113.06789018488	25.793580689823
0	178053	3076121.555527651032	8.487637466152
0	178058	3076149.494935011658	27.939407360626
0	178063	3076172.522705929331	23.027770917673
0	178080	3076429.829815084804	257.30710915547
0	178085	3076446.775925009497	16.946109924693
0	178090	3076462.465756775984	15.689831766487
0	178097	3076529.443889271833	66.978132495849
0	178102	3076604.010107412609	74.566218140776
0	178107	3076609.182970727664	5.172863315055
0	178112	3076638.219825501525	29.036854773861
0	178119	3076779.895655465562	141.67582996404
0	178126	3076850.928111922999	71.032456457437
0	178133	3076965.183214892172	114.25510296917
0	178138	3076996.157595917595	30.974381025423
0	178143	3077004.165799138715	8.00820322112
0	178150	3077106.943872476956	102.77807333824
0	178155	3077155.743470452812	48.799597975856
0	178162	3077224.847437231247	1.578090789309
0	178169	3077301.075456982368	69.823882253877
0	178176	3077467.448141776211	71.176897887716
0	178185	3077644.717054239476	27.792045167859
0	178190	3077657.528449554123	12.811395314647
0	178197	3077749.552158539755	14.848893659356
0	178204	3077820.319459453505	46.063527866538
0	178213	3077853.937513622265	8.364238022126
0	178218	3077857.437402436449	3.499888814184
0	178225	3077874.138820254178	7.328379433598
0	178232	3078042.752861323779	27.685518821497
0	178239	3078183.959154474843	14.50989988907
0	178248	3078231.864417277212	27.569955094514
0	178253	3078303.785963466699	71.921546189487
0	178264	3078424.342155381409	31.192488253887
0	178269	3078436.010919815935	11.668764434526
0	178274	3078491.325348169673	55.314428353738
0	178283	3078523.885607240199	29.200728760897
0	178288	3078556.886392084843	33.000784844644
0	178301	3079022.875758664172	132.53833140675
0	178306	3079029.618978442191	6.743219778019
0	178313	3079035.274477799293	5.655499357102
0	178337	3079843.505675362112	71.24761335691
0	178342	3079848.602372181616	5.096696819504
0	178347	3079856.206893836592	7.604521654976
0	178358	3080074.087337775071	103.19229713897
0	178365	3080112.656928126108	1.570440434352
0	178372	3080128.378456602914	2.07457753557
0	178379	3080352.045610695206	27.112731092066
0	178386	3080400.513373431803	10.939438909391
0	178393	3080442.626141423724	41.626137227714
0	178404	3080821.563201086425	144.36964097758
0	178409	3080889.184571850746	67.621370764321
0	178414	3080896.584958294136	7.40038644339
0	178427	3081174.453979733577	93.14870538555
0	178432	3081189.510272809609	15.056293076032
0	178437	3081236.6366117718	47.126338962191
0	178444	3081290.121271725502	53.484659953702
0	178449	3081319.906238721667	29.784966996165
0	178456	3081522.92726261648	104.36938225709
0	178465	3081648.052149724097	6.133931156889
0	178470	3081672.027928297697	23.9757785736
0	178477	3081761.530442183794	6.333219542996
0	178484	3081815.494291769494	32.018032067751
0	178491	3081915.015179198596	27.721285747731
0	178502	3082480.122529520539	25.404478951796
0	178507	3082504.165929566583	24.043400046044
0	178514	3082523.579879942951	19.413950376368
0	178521	3082663.636815374695	140.05693543174
0	178528	3082695.445527922944	31.808712548249
0	178533	3082701.56513675151	6.119608828566
0	178542	3082831.859188040137	91.543398081536
0	178549	3082884.80678412553	52.947596085393
0	178554	3082911.064441979656	26.257657854126
0	178561	3083063.716536365411	22.044899731459
0	178568	3083251.770255960039	39.997521078633
0	178582	3083666.709491222357	62.663529756412
0	178587	3083674.230002438562	7.520511216205
0	178594	3083751.198876156257	28.795370513172
0	178601	3084073.987682870619	32.783645581076
0	178612	3084493.309374491495	15.271971016772
0	178619	3084566.078792256208	68.040578887991
0	178626	3084658.202220240079	7.561359759628
0	178633	3084795.693576267766	86.026932596383
0	178642	3085032.722519640359	104.47360273154
0	178647	3085066.312989211058	33.590469570699
0	178654	3085097.121790918161	21.94187474233
0	178663	3085268.029783946748	81.481122119216
0	178668	3085287.111857406572	19.082073459824
0	178677	3085550.886194546389	158.04451050854
0	178682	3085613.062953653655	62.176759107266
0	178689	3085737.701883176004	35.604848160412
0	178696	3085803.62761004006	15.08150500685
0	178705	3086023.817443089482	54.215799583813
0	178710	3086052.347908497367	28.530465407885
0	178717	3086169.444355424866	48.460858723183
0	178724	3086201.086250917133	18.151663721957
0	178731	3086565.384703128583	40.669111871849
0	178742	3086856.891190049052	83.876757960793
0	178745	3086857.33490235714	0.443712308088
0	178752	3086867.645854186019	10.310951828879
0	178763	3087062.983690335315	75.194822365787
0	178793	3088122.349071016004	5.742274807099
0	178798	3088139.736631913157	17.387560897153
0	178803	3088153.578019203386	13.841387290229
0	178808	3088155.865050314903	2.287031111517
0	178813	3088162.021444643524	6.156394328621
0	178820	3088270.644139767026	74.610087924433
0	178829	3088561.615338117198	39.416265591576
0	178834	3088584.550790675473	22.935452558275
0	178851	3088745.091339024055	122.48023441619
0	178856	3088751.316076513661	6.224737489606
0	178861	3088761.110144130976	9.794067617315
0	178866	3088772.973371631144	11.863227500168
0	178873	3088842.222542530605	10.572999166553
0	178880	3088990.09718294503	82.640686625639
0	178889	3089297.934830767518	149.06693098164
0	178896	3089377.105444393316	79.170613625798
0	178903	3089414.995473558761	37.890029165445
0	178908	3089510.136423747319	95.140950188558
0	178915	3089553.586760867202	0.66165187612
0	178922	3089641.070094601851	58.113176532017
0	178933	3089704.501263132108	57.623403497083
0	178938	3089705.270843163215	0.769580031107
0	178943	3089728.931172435208	23.660329271993
0	178952	3089813.407378523347	37.653803812452
0	178957	3089823.391223001796	9.983844478449
0	178964	3089963.621923583179	33.210676147931
0	178971	3090298.635492254116	229.00291561976
0	178978	3090430.001351240435	28.427539887344
0	178987	3090490.201827319319	43.375565645346
0	178992	3090504.695043779173	14.493216459854
0	179001	3090763.394038144099	94.463499382996
0	179006	3090821.091978329191	57.697940185092
0	179013	3091033.675956754843	11.266017860669
0	179020	3091103.330768115652	42.474586010582