version 2
run Simulations-11-20191215-22:53:55-18910
attr configname Simulations
attr datetime 20191215-22:53:55
attr experiment Simulations
attr inifile omnetpp.ini
attr iterationvars "$seed=7, $0=6000"
attr iterationvarsf seed=7,6000-
attr measurement "$seed=7, $0=6000"
attr network WifiCelNetPassiveQueue
attr processid 18910
attr repetition 0
attr replication #0
attr resultdir results/Simulations/omnet
attr runnumber 11
attr seedset 7
itervar seed 7
param **.numJobs 14000
param *.OFFLOAD.deadline exponential(6000s)
param *.source.interArrivalTime exponential(120s)
param *.WIFI.serviceTime exponential(40s)
param *.CELL.serviceTime exponential(400s)
param *.OFFLOAD.switchToWi exponential(1524s)
param *.OFFLOAD.switchToCel exponential(3120s)
param *.LOCAL.serviceTime exponential(5s)
param *.REMOTE.serviceTime exponential(1s)

vector 0 WifiCelNetPassiveQueue.WIFI serviceTime:vector ETV
attr interpolationmode none
attr title "wifi Service, vector"
attr unit s
vector 1 WifiCelNetPassiveQueue.WIFI responseTime:vector ETV
attr interpolationmode none
attr title "Response Time, vector"
attr unit s
vector 2 WifiCelNetPassiveQueue.OFFLOAD queueLength:vector ETV
attr interpolationmode sample-hold
attr title "queue length, vector"
vector 3 WifiCelNetPassiveQueue.REMOTE serviceTime:vector ETV
attr interpolationmode none
attr title "wifi Service, vector"
attr unit s
vector 4 WifiCelNetPassiveQueue.REMOTE responseTime:vector ETV
attr interpolationmode none
attr title "Response Time, vector"
attr unit s
vector 5 WifiCelNetPassiveQueue.sink lifeTime:vector ETV
attr interpolationmode none
attr title "lifetime of arrived jobs, vector"
attr unit s
vector 6 WifiCelNetPassiveQueue.REMOTE queueLength:vector ETV
attr interpolationmode sample-hold
attr title "queue length, vector"
vector 7 WifiCelNetPassiveQueue.OFFLOAD storeCelTime:vector ETV
attr interpolationmode none
attr title "Time in Cell, vector"
attr unit s
vector 8 WifiCelNetPassiveQueue.OFFLOAD storeDeadline:vector ETV
attr interpolationmode none
attr title "deadline, vector"
attr unit s
vector 9 WifiCelNetPassiveQueue.OFFLOAD storeWifiTime:vector ETV
attr interpolationmode none
attr title "Time in Wifi, vector"
attr unit s
vector 10 WifiCelNetPassiveQueue.CELL serviceTime:vector ETV
attr interpolationmode none
attr title "wifi Service, vector"
attr unit s
vector 11 WifiCelNetPassiveQueue.CELL responseTime:vector ETV
attr interpolationmode none
attr title "Response Time, vector"
attr unit s
vector 12 WifiCelNetPassiveQueue.LOCAL serviceTime:vector ETV
attr interpolationmode none
attr title "wifi Service, vector"
attr unit s
vector 13 WifiCelNetPassiveQueue.LOCAL responseTime:vector ETV
attr interpolationmode none
attr title "Response Time, vector"
attr unit s
vector 14 WifiCelNetPassiveQueue.LOCAL queueLength:vector ETV
attr interpolationmode sample-hold
attr title "queue length, vector"
0	88331	1500044.003630534787	72.700841426717
0	88338	1500255.114234012481	211.11060347769
0	88345	1500269.768208060085	14.653974047604
0	88352	1500334.187527116275	64.41931905619
0	88357	1500336.042063786656	1.854536670381
0	88370	1500434.546908490096	98.50484470344
0	88375	1500472.948441135041	38.401532644945
0	88380	1500481.511407792267	8.562966657226
0	88385	1500497.665578952818	16.154171160551
0	88392	1500544.049130224248	46.38355127143
0	88403	1500700.010134312149	155.9610040879
0	88408	1500771.274821626271	71.264687314122
0	88413	1500825.14345535394	53.868633727669
0	88416	1500827.636335288058	2.492879934118
0	88425	1501054.108637503036	53.728386597723
0	88432	1501139.403311132142	3.122975795396
0	88441	1501731.155542538062	57.850460441949
0	88446	1501799.445264016017	68.289721477955
0	88455	1501839.001391746006	34.071048488167
0	88462	1501851.249885578364	12.248493832358
0	88467	1501861.413505026494	10.16361944813
0	88474	1501938.884072203046	22.619754915972
0	88483	1502005.617397873727	45.513030200127
0	88488	1502092.393902587903	86.776504714176
0	88495	1502436.166456295329	20.670603915502
0	88502	1502534.523976535583	31.94605814825
0	88509	1502630.483054765244	8.635532359957
0	88516	1502764.934547356549	58.979017398681
0	88540	1503550.842716662574	85.454363089645
0	88547	1503591.312531816951	40.469815154377
0	88552	1503627.542681392962	36.230149576011
0	88561	1503705.018775397618	77.476094004656
0	88568	1503780.4879002883	75.469124890682
0	88573	1503815.486475822489	34.998575534189
0	88580	1503823.511451802712	8.024975980223
0	88587	1503936.338806118066	112.82735431535
0	88594	1503966.910613554591	30.571807436525
0	88601	1503990.027157993806	23.116544439215
0	88606	1504022.492080647598	32.464922653792
0	88611	1504036.55352074344	14.061440095842
0	88616	1504048.600516229897	12.046995486457
0	88627	1504512.960565386722	225.39959296152
0	88632	1504583.881489870705	70.920924483983
0	88637	1504594.937414241258	11.055924370553
0	88644	1504631.942264970874	5.339976684259
0	88653	1504718.410711505293	7.779148371495
0	88658	1504746.902642945182	28.491931439889
0	88665	1504807.862370422601	24.65780603406
0	88672	1505223.075908106248	43.100926680636
0	88679	1505481.942903993839	22.476641281047
0	88686	1505780.692698053274	22.329530340316
0	88695	1506020.634077404236	20.636496259929
0	88700	1506043.178486643604	22.544409239368
0	88707	1506384.418909218017	33.552074856592
0	88714	1506633.792960344058	37.327037385166
0	88721	1506666.297265725814	8.038858403601
0	88728	1507000.482729523765	32.78670105599
0	88735	1507071.945911755957	11.04532287262
0	88742	1507320.026416449409	15.921930237818
0	88749	1507440.551707576281	87.040880759495
0	88764	1507642.84318982313	62.547125304714
0	88771	1507665.463609940477	22.620420117347
0	88776	1507736.179874096231	70.716264155754
0	88781	1507789.963595816284	53.783721720053
0	88786	1507810.641351723034	20.67775590675
0	88791	1507830.842441497334	20.2010897743
0	88800	1507901.013185024513	28.591543705607
0	88805	1507945.086336248729	44.073151224216
0	88812	1508042.28288752856	9.691666115876
0	88821	1508122.434298641338	57.739110979611
0	88826	1508164.588260372703	42.153961731365
0	88835	1508195.713594287532	22.807802888451
0	88840	1508205.984871960245	10.271277672713
0	88849	1508261.675823876012	23.340270584358
0	88856	1508289.689423514373	28.013599638361
0	88861	1508331.143139816753	41.45371630238
0	88868	1508677.76752079235	27.42488063278
0	88875	1508846.504554215674	2.206556881675
0	88884	1509085.329429270156	57.850955913383
0	88889	1509137.948776267859	52.619346997703
0	88896	1509263.53634701616	31.053621820083
0	88905	1509491.171477994849	27.124462292731
0	88910	1509506.578304114082	15.406826119233
0	88917	1509652.208311867976	24.206893805562
0	88926	1509797.492451937305	63.935481829789
0	88931	1509826.782411392801	29.289959455496
0	88940	1509908.571817265747	67.572701993525
0	88945	1509925.727309928515	17.155492662768
0	88952	1510247.02178562396	80.694355866139
0	88959	1510347.078217594715	27.916843851715
0	88966	1510599.2081879527	8.221935371345
0	88973	1510667.611948994736	42.205979309296
0	88982	1510825.726652500179	51.668155490773
0	88987	1510840.173733187766	14.447080687587
0	88994	1510876.458583628882	4.507009500402
0	89001	1510921.562930205505	32.114140131289
0	89010	1511022.969198306213	41.240452862532
0	89017	1511081.624290300866	58.655091994653
0	89022	1511176.624678014411	95.000387713545
0	89033	1511319.325745644155	128.28167363962
0	89038	1511339.738668851708	20.412923207553
0	89045	1511363.724358429259	23.985689577551
0	89050	1511398.903265424324	35.178906995065
0	89061	1511521.294896586724	65.204370006034
0	89068	1511570.519847367373	49.224950780649
0	89075	1511678.509861875514	107.99001450814
0	89082	1511708.639493515608	30.129631640094
0	89087	1511713.063961430049	4.424467914441
0	89092	1511759.324850446869	46.26088901682
0	89099	1511783.531149976136	5.873031711338
0	89106	1512065.836882741672	0.029786560095
0	89113	1512134.172859511336	0.023544336398
0	89122	1512194.150513946316	54.174820063209
0	89127	1512254.676592288592	60.526078342276
0	89138	1512305.377581766044	34.869054049653
0	89143	1512321.468003118725	16.090421352681
0	89146	1512323.528399340236	2.060396221511
0	89157	1512484.20832794932	46.242355605593
0	89164	1512531.664003894087	47.455675944767
0	89167	1512532.288479989702	0.624476095615
0	89236	1514905.518084857362	33.329632423625
0	89243	1514950.947692659733	45.429607802371
0	89248	1514962.823164193789	11.875471534056
0	89255	1514979.819617273243	16.996453079454
0	89262	1515128.337463471248	148.51784619801
0	89267	1515189.613159730106	61.275696258858
0	89274	1515359.849861356801	170.2367016267
0	89279	1515426.142912332167	66.293050975366
0	89284	1515481.228351391447	55.08543905928
0	89289	1515522.990626957472	41.762275566025
0	89295	1515585.792083261245	62.801456303773
0	89323	1516002.858818602616	4.499307907272
0	89328	1516009.652303511883	6.793484909267
0	89333	1516018.690738076761	9.038434564878
0	89338	1516060.279868654284	41.589130577523
0	89349	1516145.417169327453	85.137300673169
0	89354	1516194.341612817088	48.924443489635
0	89359	1516207.242587466691	12.900974649603
0	89364	1516213.084795897956	5.842208431265
0	89369	1516236.126532425605	23.041736527649
0	89376	1516416.760528994015	11.240051651845
0	89383	1516484.309798570029	7.472697037744
0	89390	1516616.665530531843	30.635068475126
0	89397	1516675.13985265471	41.300563551496
0	89406	1516847.696206667918	56.649591230648
0	89411	1516884.775797646849	37.079590978931
0	89418	1517005.48865850959	1.141106927434
0	89425	1517201.497282826623	22.886287339906
0	89438	1517393.790531379386	64.304879453507
0	89445	1517412.590945396869	18.800414017483
0	89450	1517427.719898339609	15.12895294274
0	89457	1517432.86510646697	5.145208127361
0	89462	1517459.29607348154	26.43096701457
0	89467	1517508.216361008967	48.920287527427
0	89474	1517530.371960498888	15.518469834292
0	89481	1517656.041822083731	8.774773612821
0	89488	1517681.225950627041	23.591401428127
0	89499	1517893.6123640868	64.477086303333
0	89504	1517921.19855719185	27.58619310505
0	89509	1518069.869532454195	148.67097526234
0	89516	1518151.654053986315	9.432822227766
0	89523	1518174.66638484626	18.290843213423
0	89530	1518268.782949505348	26.105998780009
0	89537	1518450.705785139388	55.619883026484
0	89544	1518501.642202140582	7.440096648291
0	89551	1518585.399999969698	21.645403346478
0	89558	1518805.648599204566	1.336864769675
0	89631	1520818.76742043481	154.31064770008
0	89636	1520832.288636236662	13.521215801852
0	89641	1520842.122044504903	9.833408268241
0	89646	1520870.08401032828	27.961965823377
0	89651	1520897.531672421289	27.447662093009
0	89658	1521007.609301099626	110.07762867834
0	89665	1521198.495337652615	190.88603655299
0	89670	1521282.609273005303	84.113935352688
0	89675	1521307.55441309903	24.945140093727
0	89680	1521313.939640659243	6.385227560213
0	89687	1521350.646591909528	36.706951250285
0	89692	1521359.032763834613	8.386171925085
0	89699	1521601.691310074923	79.733005412579
0	89710	1521674.623742847368	21.953589395689
0	89715	1521690.78037026811	16.156627420742
0	89720	1521694.997096971471	4.216726703361
0	89727	1521827.423875062016	25.413805336912
0	89734	1521865.130921375804	0.412883577531
0	89743	1521931.598237491168	12.605303789654
0	89750	1521994.19818477848	62.599947287312
0	89755	1522023.663182663417	29.464997884937
0	89762	1522123.254438700425	9.907000729628
0	89769	1522194.105980645025	4.709831566056
0	89780	1522297.820830083863	67.112979715474
0	89785	1522356.725402253808	58.904572169945
0	89790	1522392.73053685654	36.005134602732
0	89797	1522445.881704559769	52.27519333994
0	89804	1522488.473876357	4.533289016775
0	89811	1522560.89511907226	45.547893571581
0	89818	1522648.838178210982	23.299290269239
0	89827	1522800.13125003976	52.110062144356
0	89832	1522821.051246856907	20.919996817147
0	89839	1522959.99802456714	14.21056139303
0	89846	1523160.005992703436	2.677388854427
0	89853	1523529.27230762122	5.207370421796
0	89860	1523632.0812139908	23.887814154737
0	89867	1523767.925513009802	0.251933007949
0	89874	1524000.873811062168	24.510998179046
0	89885	1524120.856422229305	57.012015593626
0	89890	1524135.396409587844	14.539987358539
0	89895	1524188.229385985201	52.832976397357
0	89902	1524334.623882347671	21.259429315903
0	89909	1524510.684729392685	117.95375383253
0	89916	1524635.373002471994	10.32817900957
0	89925	1524792.498735297216	57.722479553139
0	89930	1524851.625642353769	59.126907056553
0	89939	1524920.15506419326	25.942980998743
0	89944	1524926.884289781828	6.729225588568
0	89951	1525027.664564605587	36.274449586098
0	89958	1525226.670707551894	9.466022591601
0	89965	1525688.645039984786	9.243765646999
0	89974	1525784.49492660267	36.035224075159
0	89979	1525798.524393942066	14.029467339396
0	89986	1526143.038197649818	3.859337990404
0	90009	1526701.216967962292	20.55639464186
0	90016	1526745.910842423843	14.440996523041
0	90023	1527003.802579685876	118.10082484008
0	90032	1527038.911435330428	19.324108645813
0	90037	1527061.444086397082	22.532651066654
0	90072	1528289.433467134461	9.819490149093
0	90077	1528294.496952327105	5.063485192644
0	90082	1528326.522889650332	32.025937323227
0	90087	1528395.932376487511	69.409486837179
0	90094	1528460.19322251318	64.260846025669
0	90099	1528468.586177748118	8.392955234938
0	90104	1528495.175038740584	26.588860992466
0	90111	1528541.779047974831	46.604009234247
0	90116	1528577.400309026112	35.621261051281
0	90123	1528748.53927306316	7.283031321267
0	90132	1528861.047795162225	51.003906279344
0	90139	1528903.206256032609	42.158460870384
0	90144	1528904.676021066531	1.469765033922
0	90153	1529198.748410279948	152.97251683435
0	90162	1529275.045736360642	76.297326080694
0	90167	1529297.567391711551	22.521655350909
0	90176	1529459.8768360819	162.30944437035
0	90181	1529519.423047393302	59.546211311402
0	90186	1529575.456975193737	56.033927800435
0	90193	1529679.144034888269	39.396943079459
0	90200	1529864.044574106625	20.895223620391
0	90207	1530378.178443760574	6.458786601562
0	90214	1530421.109096482046	1.832992050678
0	90235	1530899.22441990876	47.799203843121
0	90240	1530924.074660987872	24.850241079112
0	90251	1531140.070760036918	157.29012377994
0	90256	1531165.880070747061	25.809310710143
0	90261	1531176.255873762021	10.37580301496
0	90274	1531399.796714060427	114.11226670842
0	90285	1531587.626449873605	65.873830068513
0	90290	1531600.58646551706	12.960015643455
0	90295	1531624.391842100201	23.805376583141
0	90302	1531826.494944119353	77.906792496791
0	90309	1532195.191310144784	126.02458552522
0	90318	1532261.123650850496	64.981206871522
0	90323	1532277.69852035132	16.574869500824
0	90330	1532363.803117582884	6.770423075422
0	90339	1532495.98046829146	21.874560396948
0	90344	1532506.204370454252	10.223902162792
0	90351	1532571.099344100236	29.830697560558
0	90358	1532694.60221986613	22.383271546479
0	90420	1535363.323168228152	96.81654822589
0	90427	1535459.616018331305	96.292850103153
0	90434	1535482.915926735332	23.299908404027
0	90439	1535530.024568183463	47.108641448131
0	90448	1535606.860899115541	76.836330932078
0	90453	1535635.343919519887	28.483020404346
0	90458	1535665.328777282414	29.984857762527
0	90463	1535680.739245027734	15.41046774532
0	90470	1535756.358289278465	75.619044250731
0	90475	1535803.290106456449	46.931817177984
0	90480	1535885.604110715626	82.314004259177
0	90487	1536123.559795761805	237.95568504618
0	90492	1536138.089339935184	14.529544173379
0	90499	1536163.938664651467	25.849324716283
0	90504	1536202.925706236972	38.987041585505
0	90509	1536250.670337869601	47.744631632629
0	90516	1536374.797020101203	124.1266822316
0	90523	1536412.975958695405	38.178938594202
0	90528	1536431.228107055972	18.252148360567
0	90535	1536504.318284617872	29.537132736174
0	90542	1536592.841298646659	4.562462118019
0	90549	1536692.386911971713	25.627079825905
0	90556	1536697.272325898253	1.940067089303
0	90563	1536873.274831760377	73.757281618173
0	90574	1537020.152772155408	79.595065683008
0	90579	1537023.386251075059	3.233478919651
0	90584	1537096.064058480538	72.677807405479
0	90593	1537223.879745793655	48.245400548243
0	90598	1537240.967621596715	17.08787580306
0	90605	1537439.627055030315	11.961928772988
0	90614	1537609.919042166495	55.956483942008
0	90619	1537618.711466188581	8.792424022086
0	90626	1537638.528509504056	4.162506195474
0	90633	1537835.650255051295	47.872777560555
0	90645	1538272.199797791225	6.379630556637
0	90652	1538380.321529876245	92.864218532315
0	90663	1538560.700168701862	64.367811859245
0	90670	1538732.915764621838	8.835152504593
0	90677	1538761.094899418559	23.865013487502
0	90684	1538812.394053500494	10.46702652459
0	90691	1538895.010709098187	18.108599561318
0	90705	1539230.859990954037	299.89045071663
0	90723	1539404.453432337263	6.934253021644
0	90728	1539433.264386706213	28.81095436895
0	90735	1539487.787178729829	5.769737111525
0	90742	1539532.49656059746	5.450194964336
0	90749	1539630.415709388467	5.454656589024
0	90758	1539763.922443122073	131.98992596142
0	90767	1539824.03399773015	60.111554608077
0	90772	1539932.659539515179	108.62554178503
0	90781	1539948.431931858433	15.772392343254
0	90786	1539999.3971164439	50.965184585467
0	90791	1540079.486481593643	80.089365149743
0	90798	1540217.610090168387	44.843267758828
0	90805	1540226.254506474221	5.145338870872
0	90835	1540927.632906263384	12.475544253624
0	90840	1540976.704027768357	49.071121504973
0	90845	1541032.659780286754	55.955752518397
0	90850	1541101.187854196927	68.528073910173
0	90855	1541109.555617906079	8.367763709152
0	90860	1541115.357109628965	5.801491722886
0	90869	1541200.195479788901	84.838370159936
0	90874	1541211.121135088137	10.925655299236
0	90879	1541270.325770371921	59.204635283784
0	90886	1541321.560021510111	10.371238815722
0	90893	1541505.131791229661	38.425025555378
0	90900	1541735.384523650881	47.320762847272
0	90907	1541860.352709916306	94.559280005591
0	90914	1541982.180944469067	81.882816531286
0	90923	1542327.896244992056	92.984950309668
0	90928	1542384.637759507572	56.741514515516
0	90939	1543202.401010129477	134.05409952195
0	90944	1543208.961705478918	6.560695349441
0	90949	1543220.909496271115	11.947790792197
0	90956	1543299.669203043707	13.433932051801
0	90963	1543578.761120485718	18.335554346859
0	90970	1543704.267062972811	50.68665849817
0	90977	1543949.38289422125	15.594917070042
0	90986	1544316.20446601852	22.051312493407
0	90991	1544316.544748796937	0.340282778417
0	90998	1544598.434289977075	0.185926280557
0	91005	1544630.365771081604	11.390827294946
0	91012	1544699.997530676472	19.293769269721
0	91019	1544897.562518904896	22.983637630732
0	91026	1544973.779951042084	45.88892099381
0	91037	1545356.862199038548	84.742251758743
0	91044	1545414.990467865843	58.128268827295
0	91049	1545418.221233801763	3.23076593592
0	91054	1545422.614337265643	4.39310346388
0	91061	1545434.342603874187	0.15992879361
0	91072	1545641.087790050736	171.65251427473
0	91077	1545673.128232610557	32.040442559821
0	91084	1545749.209377165315	76.081144554758
0	91089	1545775.202246408078	25.992869242763
0	91100	1546124.135796004545	63.020451141527
0	91105	1546174.937226988775	50.80143098423
0	91110	1546200.335019376267	25.397792387492
0	91119	1546481.666323334245	18.19600072367
0	91124	1546550.596007226376	68.929683892131
0	91131	1546664.312684100729	93.356925370577
0	91138	1546730.596658808954	33.018679236609
0	91145	1546870.810048714794	51.221126799135
0	91152	1546875.499939215195	0.711182739883
0	91296	1551036.341621188485	10.185775096951
0	91301	1551037.391513959308	1.049892770823
0	91306	1551127.942695464787	90.551181505479
0	91311	1551148.879367592898	20.936672128111
0	91322	1551298.470127652557	149.59076005966
0	91327	1551307.708811229102	9.238683576545
0	91330	1551307.832027453448	0.123216224346
0	91339	1551354.388644396813	46.556616943365
0	91344	1551358.512797488425	4.124153091612
0	91351	1551430.532173762865	72.01937627444
0	91364	1551538.00863358011	107.47645981725
0	91371	1551685.092557138533	147.08392355842
0	91376	1551744.499871869365	59.407314730832
0	91387	1551886.89221084317	142.39233897381
0	91392	1551910.425336880024	23.533126036854
0	91395	1551912.538629125136	2.113292245112
0	91402	1551928.064393140587	15.525764015451
0	91407	1551946.179648139974	18.115254999387
0	91412	1551966.284489195519	20.104841055545
0	91417	1552051.153657308874	84.869168113355
0	91422	1552084.77863499777	33.624977688896
0	91427	1552086.045620660358	1.266985662588
0	91434	1552227.638760140187	89.481347896414
0	91441	1552373.176830181631	2.67549197156
0	91448	1552673.399524152754	55.879565888897
0	91455	1552687.993881272	8.087234756517
0	91462	1552917.67431514142	39.474572455846
0	91469	1553032.912810390416	63.207617675689
0	91476	1553109.600754679105	5.470721318915
0	91485	1553144.726954204481	17.398812541077
0	91490	1553150.647360173902	5.920405969421
0	91499	1553404.813178594671	25.71251624517
0	91508	1553572.399172847476	167.5859942528
0	91513	1553577.801658389272	5.402485541796
0	91518	1553588.408522275109	10.606863885837
0	91525	1553769.655165208212	146.51371623051
0	91532	1554082.094673909975	4.081558957032
0	91539	1554263.520712016616	67.152565524338
0	91546	1554338.953393933332	0.137263475095
0	91553	1554391.590260524057	37.90384993699
0	91560	1554631.415414212487	8.211196941045
0	91567	1554714.576059390116	38.22054939119
0	91574	1554891.647608486172	11.680169320232
0	91581	1555219.353609461901	46.128201507419
0	91588	1555277.50099884667	23.164605068265
0	91595	1555501.87295661354	61.644177638852
0	91602	1555602.154884988064	1.160052439299
0	91613	1556030.202193621963	291.3420404429
0	91618	1556032.138738647384	1.936545025421
0	91625	1556138.543607881693	106.40486923431
0	91630	1556166.55536994979	28.011762068097
0	91637	1556210.598876362332	2.203241505631
0	91646	1556354.529790839797	25.770111251289
0	91651	1556465.18693570929	110.65714486949
0	91658	1556638.307175299612	6.997389914203
0	91668	1556967.05954936616	77.523912643285
0	91722	1557998.391438149866	221.76656570561
0	91727	1558002.807345724286	4.41590757442
0	91732	1558018.386024199944	15.578678475658
0	91737	1558035.938287457582	17.552263257638
0	91742	1558038.563359030529	2.625071572947
0	91747	1558056.477282050941	17.913923020412
0	91752	1558070.463647652727	13.986365601786
0	91757	1558078.714184036094	8.250536383367
0	91762	1558095.746389971616	17.032205935522
0	91767	1558102.827038069583	7.080648097967
0	91772	1558144.857074592217	42.030036522634
0	91779	1558376.934484281484	10.416979602948
0	91786	1558441.138470617021	23.819155017147
0	91793	1558730.22854915421	60.696194288582
0	91800	1558877.195775790454	43.800697707124
0	91811	1559048.020004802818	67.049654615705
0	91816	1559111.052014379296	63.032009576478
0	91821	1559160.461898285066	49.40988390577
0	91830	1559263.43002063458	26.220696790082
0	91836	1559336.451450056573	73.021429421993
0	91882	1560429.548142787234	9.170271834907
0	91887	1560456.261114331371	26.712971544137
0	91892	1560601.107179899746	144.84606556837
0	91897	1560606.418580171012	5.311400271266
0	91902	1560618.841991628692	12.42341145768
0	91911	1560806.859355355475	188.01736372678
0	91916	1560808.097717695832	1.238362340357
0	91921	1560860.545691986406	52.447974290574
0	91926	1560905.481842190576	44.93615020417
0	91931	1560910.71372917829	5.231886987714
0	91936	1560914.369608582577	3.655879404287
0	91941	1560915.88838940982	1.518780827243
0	91948	1561074.910358816816	4.694446133829
0	91955	1561170.981612971591	72.717772730952
0	91962	1561468.384892947301	39.540948135319
0	91971	1561581.788912213571	86.033152151039
0	91978	1561626.693104069793	44.904191856222
0	91983	1561631.754581398213	5.06147732842
0	91990	1561995.438215019316	17.993033891381
0	91999	1562253.273085348305	96.055453008182
0	92002	1562253.401792106359	0.128706758054
0	92013	1562888.655006222231	77.669428337604
0	92022	1563077.598663063352	188.94365684112
0	92027	1563100.506265649969	22.907602586617
0	92034	1563148.468213448184	47.961947798215
0	92039	1563153.143499681661	4.675286233477
0	92048	1563187.66491447473	16.332302407666
0	92053	1563197.267299035524	9.602384560794
0	92060	1563232.354784534357	19.796827235697
0	92069	1563346.283904177216	47.677447053135
0	92076	1563350.548602974135	4.264698796919
0	92081	1563370.738198431796	20.189595457661
0	92090	1563383.173058306902	6.804247872391
0	92095	1563390.296437430453	7.123379123551
0	92102	1563601.739059492274	44.420944026404
0	92117	1563991.127624540233	126.82004698847
0	92122	1564010.335142147379	19.207517607146
0	92131	1564063.550037390849	53.21489524347
0	92140	1564151.758698915635	88.208661524786
0	92147	1564252.911313715848	101.15261480021
0	92152	1564254.2767317309	1.365418015052
0	92157	1564276.066521689404	21.789789958504
0	92162	1564313.287526661547	37.221004972143
0	92167	1564356.977651729743	43.690125068196
0	92172	1564385.861897183043	28.8842454533
0	92220	1565258.275289190328	28.754354256492
0	92223	1565260.172323137158	1.89703394683
0	92230	1565282.84016735263	22.667844215472
0	92235	1565353.082221952165	70.242054599535
0	92240	1565360.325420008709	7.243198056544
0	92245	1565389.573657801799	29.24823779309
0	92252	1565608.757122712366	48.909179246596
0	92259	1565651.953885337264	40.826597728421
0	92266	1565718.132408281533	54.234179413251
0	92273	1565764.734502849149	14.333693494846
0	92280	1566046.619095394443	102.12621221569
0	92287	1566074.312160714279	14.896213494544
0	92294	1566091.800143266127	2.411013018103
0	92301	1566358.576847611576	25.926373467963
0	92308	1566521.377830513953	9.375370229167
0	92315	1566612.782492584565	42.053294394895
0	92322	1566626.159224759783	8.444631260965
0	92333	1566903.07946801046	102.69947792345
0	92340	1566928.457738492259	25.378270481799
0	92343	1566928.942888690657	0.485150198398
0	92350	1566943.070843328255	14.127954637598
0	92357	1567188.488080725963	22.175157858358
0	92366	1567275.321740056395	24.390477300872
0	92375	1567314.033936007479	38.712195951084
0	92380	1567408.681907718249	94.64797171077
0	92385	1567444.135113277928	35.453205559679
0	92392	1567683.686020557242	21.171489117526
0	92399	1567842.213965969909	18.767111093423
0	92406	1567937.699340850512	23.008357576676
0	92415	1568002.652409491664	20.880809854757
0	92420	1568004.381592969992	1.729183478328
0	92429	1568067.864855381193	63.11303735976
0	92434	1568083.194901956771	15.330046575578
0	92441	1568302.530024169934	61.665943235972
0	92481	1569474.054064084891	7.890571959106
0	92486	1569523.770271095569	49.716207010678
0	92491	1569570.651570291894	46.881299196325
0	92498	1569671.696512200964	8.762614264189
0	92505	1569723.536256612439	50.617799266215
0	92512	1569852.881010307084	7.942601491185
0	92519	1570052.45513556707	48.079233671347
0	92528	1570200.432561093161	78.13357034128
0	92533	1570232.545296060845	32.112734967684
0	92540	1570579.471161717693	7.139259318932
0	92547	1570665.1732289433	11.818065203679
0	92554	1570721.555593311724	16.393981097187
0	92561	1570825.197784510519	95.785656239711
0	92568	1570861.874128470141	14.469550059658
0	92577	1571050.457094320484	19.812983835964
0	92582	1571055.459536541643	5.002442221159
0	92591	1571374.867902196353	80.621435551663
0	92596	1571391.629242965264	16.761340768911
0	92603	1571547.881412676274	22.124586386604
0	92610	1571704.671914390418	2.588584559083
0	92617	1571940.439868993771	44.348623024775
0	92626	1572153.254010033436	76.264590463344
0	92635	1572219.236454663821	65.982444630385
0	92640	1572354.939788713668	135.70333404985
0	92645	1572366.713213221407	11.773424507739
0	92654	1572412.927267472262	18.883584433277
0	92659	1572429.166822550058	16.239555077796
0	92666	1572525.941151279822	8.670536227872
0	92673	1572634.308062755572	0.501070685704
0	92680	1572832.733782610958	68.291199018909
0	92687	1572968.609676091743	110.81425343952
0	92696	1573024.470914678657	34.000201435924
0	92701	1573033.509841519988	9.038926841331
0	92708	1573095.62512761159	10.620959022597
0	92715	1573243.576353681858	25.124844618742
0	92722	1573427.758932903317	23.835446759577
0	92729	1573616.667888686462	5.479485433469
0	92736	1573670.486927605992	6.221735655375
0	92743	1573735.387221188844	3.358819563628
0	92750	1573812.534530992471	16.545523594267
0	92757	1574084.406931203073	57.005567366458
0	92764	1574180.355135853625	9.915979036599
0	92771	1574342.113937019425	53.39549119534
0	92778	1574398.829434477006	16.15824487395
0	92787	1574741.205674259302	56.020549404552
0	92794	1574748.266272580166	7.060598320864
0	92801	1574794.720912943894	46.454640363728
0	92806	1574797.097216114111	2.376303170217
0	92813	1574878.272838609212	6.087172211192
0	92820	1575274.409059010245	31.337362806435
0	92829	1575376.137758904169	16.794033602209
0	92836	1575384.018443583501	7.880684679332
0	92843	1575408.645178991254	24.626735407753
0	92846	1575409.149659398422	0.504480407168
0	92855	1575527.623840489092	7.455571039101
0	92864	1575615.331619355869	78.705979947408
0	92869	1575662.852228499098	47.520609143229
0	92878	1575950.469561130165	73.115619064176
0	92887	1576105.68676591275	37.577974364122
0	92896	1576171.726645379293	66.039879466543
0	92901	1576195.474913233402	23.748267854109
0	92906	1576199.563386369711	4.088473136309
0	92917	1576294.077006346835	63.103164519333
0	92922	1576297.527043340601	3.450036993766
0	92927	1576310.083083575215	12.556040234614
0	92936	1576387.175126751975	32.86765467396
0	92941	1576428.22152535121	41.046398599235
0	92948	1576563.990826368964	56.000692970726
0	92955	1576649.04990286773	2.836781082645
0	92962	1576794.633732242793	60.531229066592
0	92969	1576841.279059377937	0.495618760784
0	92976	1576955.852306771485	9.316068947964
0	92983	1577020.272326771614	47.726668756538
0	93022	1578519.272582486186	70.655615282533
0	93027	1578528.000019772962	8.727437286776
0	93032	1578536.39905410285	8.399034329888
0	93037	1578610.611840542087	74.212786439237
0	93042	1578641.32572534154	30.713884799453
0	93049	1578684.14272564545	42.81700030391
0	93054	1578700.985340879482	16.842615234032
0	93059	1578714.74170638321	13.756365503728
0	93064	1578781.887651058024	67.145944674814
0	93069	1578838.464558611323	56.576907553299
0	93076	1578903.354289030594	45.31148382221