version 2
run Simulations-4-20191215-22:53:53-18910
attr configname Simulations
attr datetime 20191215-22:53:53
attr experiment Simulations
attr inifile omnetpp.ini
attr iterationvars "$seed=7, $0=3000"
attr iterationvarsf seed=7,3000-
attr measurement "$seed=7, $0=3000"
attr network WifiCelNetPassiveQueue
attr processid 18910
attr repetition 0
attr replication #0
attr resultdir results/Simulations/omnet
attr runnumber 4
attr seedset 7
itervar seed 7
param **.numJobs 14000
param *.OFFLOAD.deadline exponential(3000s)
param *.source.interArrivalTime exponential(120s)
param *.WIFI.serviceTime exponential(40s)
param *.CELL.serviceTime exponential(400s)
param *.OFFLOAD.switchToWi exponential(1524s)
param *.OFFLOAD.switchToCel exponential(3120s)
param *.LOCAL.serviceTime exponential(5s)
param *.REMOTE.serviceTime exponential(1s)

vector 0 WifiCelNetPassiveQueue.WIFI serviceTime:vector ETV
attr interpolationmode none
attr title "wifi Service, vector"
attr unit s
vector 1 WifiCelNetPassiveQueue.WIFI responseTime:vector ETV
attr interpolationmode none
attr title "Response Time, vector"
attr unit s
vector 2 WifiCelNetPassiveQueue.REMOTE serviceTime:vector ETV
attr interpolationmode none
attr title "wifi Service, vector"
attr unit s
vector 3 WifiCelNetPassiveQueue.REMOTE responseTime:vector ETV
attr interpolationmode none
attr title "Response Time, vector"
attr unit s
vector 4 WifiCelNetPassiveQueue.sink lifeTime:vector ETV
attr interpolationmode none
attr title "lifetime of arrived jobs, vector"
attr unit s
vector 5 WifiCelNetPassiveQueue.OFFLOAD storeCelTime:vector ETV
attr interpolationmode none
attr title "Time in Cell, vector"
attr unit s
vector 6 WifiCelNetPassiveQueue.OFFLOAD queueLength:vector ETV
attr interpolationmode sample-hold
attr title "queue length, vector"
vector 7 WifiCelNetPassiveQueue.OFFLOAD storeDeadline:vector ETV
attr interpolationmode none
attr title "deadline, vector"
attr unit s
vector 8 WifiCelNetPassiveQueue.CELL serviceTime:vector ETV
attr interpolationmode none
attr title "wifi Service, vector"
attr unit s
vector 9 WifiCelNetPassiveQueue.CELL responseTime:vector ETV
attr interpolationmode none
attr title "Response Time, vector"
attr unit s
vector 10 WifiCelNetPassiveQueue.LOCAL serviceTime:vector ETV
attr interpolationmode none
attr title "wifi Service, vector"
attr unit s
vector 11 WifiCelNetPassiveQueue.LOCAL responseTime:vector ETV
attr interpolationmode none
attr title "Response Time, vector"
attr unit s
vector 12 WifiCelNetPassiveQueue.OFFLOAD storeWifiTime:vector ETV
attr interpolationmode none
attr title "Time in Wifi, vector"
attr unit s
vector 13 WifiCelNetPassiveQueue.REMOTE queueLength:vector ETV
attr interpolationmode sample-hold
attr title "queue length, vector"
vector 14 WifiCelNetPassiveQueue.LOCAL queueLength:vector ETV
attr interpolationmode sample-hold
attr title "queue length, vector"
0	87342	1500050.354824219167	26.305712262241
0	87462	1503139.864479338337	20.842211808272
0	87468	1503159.64221319046	19.777733852123
0	87477	1503202.388582406297	42.746369215837
0	87482	1503261.533146765726	59.144564359429
0	87487	1503298.715628225446	37.18248145972
0	87494	1503352.761453196922	54.045824971476
0	87497	1503353.426389964919	0.664936767997
0	87504	1503431.29693414985	77.870544184931
0	87511	1503536.585420983291	105.28848683344
0	87516	1503579.622818091951	43.03739710866
0	87522	1503629.449798249774	49.826980157823
0	87552	1504392.264372673332	69.212153701837
0	87557	1504415.609931733496	23.345559060164
0	87562	1504419.186905729363	3.576973995867
0	87567	1504427.28581756968	8.098911840317
0	87574	1504458.807852249653	31.522034679973
0	87579	1504531.976606273166	73.168754023513
0	87584	1504581.488118899757	49.511512626591
0	87593	1504664.039389617657	82.5512707179
0	87598	1504719.750025362897	55.71063574524
0	87607	1504775.042319443929	55.292294081032
0	87614	1504847.233629941799	72.19131049787
0	87619	1504864.283885799611	17.050255857812
0	87624	1504898.038106967721	33.75422116811
0	87631	1504949.620329055976	51.582222088255
0	87636	1504991.301221110763	41.680892054787
0	87639	1504992.725284852187	1.424063741424
0	87648	1505192.710782803578	2.155588403052
0	87655	1505302.580184983914	20.948471301493
0	87662	1505422.73306823535	11.989530397859
0	87669	1505559.528817813038	17.662043583392
0	87678	1505654.671937487588	81.00368723386
0	87685	1505798.920506251843	144.24856876425
0	87692	1505894.65936253637	95.738856284527
0	87699	1505971.43836459123	76.77900205486
0	87704	1505985.331448295089	13.893083703859
0	87711	1506034.210856848641	40.26646742631
0	87718	1506098.387994656907	39.371686145203
0	87727	1506174.504791165317	28.211057462329
0	87732	1506212.771625142333	38.266833977016
0	87741	1506262.702562466613	19.428605292016
0	87746	1506266.591707258912	3.889144792299
0	87753	1506581.625670283103	10.4935091542
0	87762	1506691.798493421925	71.19461804801
0	87769	1506802.672778644408	110.87428522248
0	87776	1506850.637665360892	47.964886716484
0	87781	1506854.614481035657	3.976815674765
0	87788	1506948.358023423942	41.749862897127
0	87795	1506972.976656807343	19.914191873623
0	87804	1507050.711677676827	74.467375850939
0	87809	1507066.048231221479	15.336553544652
0	87818	1507171.939433846306	17.79061094214
0	87823	1507176.027236800696	4.08780295439
0	87830	1507220.088265379968	19.916690542361
0	87837	1507268.43883126291	38.231936473165
0	87844	1507410.16052688005	7.243912062793
0	87851	1507493.900718688551	8.575575987513
0	87860	1507836.78666588941	48.693391976743
0	87866	1507910.954495031541	74.167829142131
0	87952	1509928.947514054617	7.135826282567
0	87959	1510050.521386501745	121.57387244713
0	87964	1510072.47328622694	21.951899725195
0	87969	1510087.118423607736	14.645137380796
0	87974	1510152.846015142236	65.7275915345
0	87981	1510220.399729209846	67.55371406761
0	87986	1510267.662541743276	47.26281253343
0	87991	1510338.78312236922	71.120580625944
0	87996	1510342.000582737003	3.217460367783
0	88001	1510354.074597435603	12.0740146986
0	88006	1510371.290619448739	17.216022013136
0	88011	1510398.155626594645	26.865007145906
0	88020	1510598.652348974577	25.987531275588
0	88025	1510632.652461617291	34.000112642714
0	88032	1510715.254903098362	35.726960426583
0	88041	1510974.889389773966	5.738360100789
0	88048	1510997.589828780842	1.795621779946
0	88057	1511294.175249373257	148.16890621522
0	88062	1511348.183215915286	54.007966542029
0	88069	1511428.727635031403	21.547798059613
0	88079	1511592.581407851858	119.37440226398
0	88387	1520926.780817862473	0.016040786218
0	88394	1520949.061144083181	22.280326220708
0	88399	1520971.580034383227	22.518890300046
0	88404	1520999.005816480016	27.425782096789
0	88409	1521038.340920932256	39.33510445224
0	88416	1521127.492130325854	89.151209393598
0	88425	1521152.747739164553	25.255608838699
0	88430	1521205.897384729596	53.149645565043
0	88435	1521242.50375718552	36.606372455924
0	88440	1521254.625502059266	12.121744873746
0	88449	1521312.737010143132	58.111508083866
0	88454	1521333.35697111251	20.619960969378
0	88459	1521362.302277728394	28.945306615884
0	88464	1521369.142440578087	6.840162849693
0	88469	1521370.420683299293	1.278242721206
0	88476	1521498.867585485153	128.44690218586
0	88481	1521509.122273990294	10.254688505141
0	88490	1521894.528749322624	72.700841426717
0	88495	1521917.566866696838	23.038117374214
0	88502	1521942.859343067745	13.54253273732
0	88509	1521996.719852812494	23.441120339257
0	88518	1522226.484971118994	59.948281477188
0	88523	1522229.455098802102	2.970127683108
0	88530	1522477.314911543795	9.700077780526
0	88537	1522562.130042178588	8.562966657226
0	88544	1522703.941190025709	6.621998764649
0	88553	1522822.268373140071	76.486668397359
0	88558	1522825.516453192618	3.248080052547
0	88565	1523337.58999266944	71.264687314122
0	88572	1523486.309340860336	118.63906149713
0	88579	1523574.576208690027	45.300028143811
0	88586	1523791.584664056186	179.00824891979
0	88593	1523811.060945923302	16.904865620257
0	88600	1524112.238454477287	36.342637952063
0	88607	1524160.001310117759	3.194829291581
0	88614	1524215.537422066543	20.901774822177
0	88629	1524440.076941567433	209.52581223922
0	88634	1524446.225027847008	6.148086279575
0	88643	1524591.874103136176	145.64907528917
0	88648	1524620.901458472011	29.027355335835
0	88653	1524673.159270008989	52.257811536978
0	88658	1524705.105328157239	31.94605814825
0	88663	1524733.141330674766	28.036002517527
0	88672	1524845.609275045865	43.229336765077
0	88677	1524862.631111674646	17.021836628781
0	88684	1525053.589431686285	51.350060530105
0	88693	1525243.452448661138	52.289633509009
0	88698	1525298.411097437608	54.95864877647
0	88705	1525467.219109728324	11.711648584308
0	88712	1525818.841819657661	12.553983921742
0	88719	1525957.32507116501	31.443054230891
0	88728	1526045.141511998631	77.476094004656
0	88736	1526144.900136285154	99.758624286523
0	88782	1527845.664052015329	39.624846460768
0	88789	1527873.673810297723	28.009758282394
0	88794	1527875.928807872523	2.2549975748
0	88801	1527897.864810715971	21.936002843448
0	88806	1527943.710982959614	45.846172243643
0	88811	1527968.368788993674	24.65780603406
0	88818	1528061.532549422734	93.16376042906
0	88825	1528161.164851089456	99.632301666722
0	88834	1528241.709655566572	80.544804477116
0	88839	1528262.346151826501	20.636496259929
0	88844	1528355.927577949901	93.5814261234
0	88849	1528364.449692948892	8.522114998991
0	88854	1528398.001767805484	33.552074856592
0	88859	1528418.599262593258	20.597494787774
0	88866	1528628.107445295582	209.50818270232
0	88871	1528642.881817310345	14.774372014763
0	88878	1528779.355468056547	32.759690165715
0	88885	1528852.783039725675	7.827158666872
0	88892	1528886.775913819594	8.68406414293
0	88899	1528929.116208415144	3.258568025025
0	88906	1529189.544277877817	2.563995209214
0	88913	1529382.735640924314	8.113982341569
0	88922	1529483.460582499142	70.816865399495
0	88927	1529545.469655957192	62.00907345805
0	88938	1529581.915509626449	20.67775590675
0	88943	1529586.369490154644	4.453980528195
0	88948	1529635.305369657708	48.935879503064
0	88955	1529670.756467052586	29.077708728519
0	88962	1529779.184630791503	5.286418794789
0	88969	1529831.904871347591	28.93166100325
0	88976	1529988.933196117239	12.742652834065
0	88983	1530120.37724172535	17.724813248081
0	88994	1530262.976170055647	91.900332913024
0	89001	1530289.095816004063	26.119645948416
0	89006	1530313.784520796025	24.688704791962
0	89011	1530318.042821103367	4.258300307342
0	89018	1530412.28822181652	44.283941672194
0	89027	1530464.39290508216	14.113983039494
0	89034	1530529.525294327958	65.132389245798
0	89039	1530546.327502926769	16.802208598811
0	89046	1530726.595462006358	24.645218498983
0	89053	1530848.711525969905	53.600417002281
0	89060	1530920.915333624273	44.430837778455
0	89067	1530943.177884382672	20.472910179155
0	89074	1531010.335683477767	15.010027857564
0	89081	1531191.640594087213	4.508492977642
0	89088	1531371.370506580207	96.368527104147
0	89097	1531568.835310186279	91.115224729645
0	89102	1531634.645420622074	65.810110435795
0	89109	1531695.143654935312	13.123147505196
0	89118	1531837.154107706712	71.38306872145
0	89125	1531941.905407303299	104.75129959659
0	89132	1531973.272238193935	31.366830890636
0	89137	1531984.021864338317	10.749626144382
0	89146	1532104.099226926475	47.655104427642
0	89151	1532152.453125877708	48.353898951233
0	89158	1532178.300320588612	16.055214219108
0	89165	1532336.921114562057	50.954649604958
0	89172	1532472.802986350929	10.87124540987
0	89179	1532768.682883927134	21.749979845439
0	89186	1533152.190848208118	20.412923207553
0	89193	1533217.37644120323	38.088155363257
0	89200	1533253.83152568551	2.586171112884
0	89207	1533361.171290286652	4.389214728831
0	89282	1534469.946540334685	0.624476095615
0	89291	1534603.673100307148	133.72655997246
0	89296	1534639.495118562609	35.822018255461
0	89301	1534715.119794569569	75.62467600696
0	89306	1534787.052602162946	71.932807593377
0	89311	1534863.137701549981	76.085099387035
0	89316	1534891.871456478902	28.733754928921
0	89321	1534943.912685702832	52.04122922393
0	89326	1535049.245503917707	105.33281821488
0	89333	1535069.865128097551	4.460423236258
0	89340	1535589.684107698832	56.367074791287
0	89347	1535796.136174236511	0.3186976931
0	89354	1535926.613834679265	15.095247835893
0	89361	1536019.282327447701	43.201930935009
0	89368	1536082.012164395494	57.289401257671
0	89375	1536171.616059504642	12.055699281108
0	89384	1536371.346324328295	66.325087851626
0	89389	1536379.666052276439	8.319727948144
0	89396	1536478.143977669026	13.465284036282
0	89403	1536612.47864453535	11.511127495492
0	89412	1536685.774959811292	49.181028169267
0	89417	1536888.058962461946	202.28400265065
0	89424	1537283.092685696087	170.2367016267
0	89431	1537674.731718825081	66.293050975366
0	89438	1537781.711917141788	2.509366589833
0	89445	1538007.260324033568	62.801456303773
0	89730	1544202.456051915305	22.542515877795
0	89736	1544275.033981995429	72.577930080124
0	89741	1544288.555197797281	13.521215801852
0	89746	1544298.388606065522	9.833408268241
0	89753	1544326.350571888899	27.961965823377
0	89758	1544343.089931681376	16.739359792477
0	89763	1544397.055142719584	53.965211038208
0	89771	1544587.941179272573	190.88603655299
0	89776	1544672.055114625261	84.113935352688
0	89781	1544697.000254718988	24.945140093727
0	89787	1544703.385482279201	6.385227560213
0	89794	1544740.092433529486	36.706951250285
0	89799	1544748.478605454571	8.386171925085
0	89804	1544792.049221717683	43.570616263112
0	89809	1544834.744352161079	42.695130443396
0	89814	1544856.697941556768	21.953589395689
0	89819	1544900.588993457387	43.891051900619
0	89826	1544916.745620878129	16.156627420742
0	89831	1544936.994610440923	20.248989562794
0	89836	1544962.408415777835	25.413805336912
0	89841	1544980.500047745582	18.091631967747
0	89846	1545050.773041073836	70.272993328254
0	89853	1545063.37834486349	12.605303789654
0	89860	1545125.978292150802	62.599947287312
0	89865	1545155.443290035739	29.464997884937
0	89870	1545180.79286040513	25.349570369391
0	89875	1545199.252383497623	18.459523092493
0	89880	1545203.962215063679	4.709831566056
0	89885	1545210.903846251018	6.941631187339
0	89890	1545218.778509086411	7.874662835393
0	89895	1545223.474264969074	4.695755882663
0	89902	1545255.778344037982	32.304079068908
0	89907	1545285.889702744781	30.111358706799
0	89912	1545350.237239806469	64.347537061688
0	89919	1545366.48362714881	12.114274619551
0	89926	1545369.892623716371	1.923404136786
0	89933	1545571.373687471165	66.760787176836
0	89940	1545635.956923196569	61.446152094523
0	89947	1545746.559003513191	15.718045978078
0	89956	1545887.460752441089	93.859804454536
0	89961	1545991.241923220712	103.78117077962
0	89970	1546326.098366615407	123.12940109935
0	89975	1546374.547928658072	48.449562042665
0	89984	1546413.553124293542	35.481867346304
0	89989	1546435.52926675152	21.976142457978
0	89996	1546476.339007143277	10.030357419635
0	90003	1546651.884683863058	14.539987358539
0	90010	1546789.098255299378	104.06855337603
0	90019	1546916.856696518062	73.328065402648
0	90024	1546928.278626665422	11.42193014736
0	90033	1547183.449798919871	43.829031954479
0	90040	1547226.206958732218	42.757159812347
0	90045	1547267.495109218471	41.288150486253
0	90052	1547525.545980235587	32.147565051866
0	90061	1547626.024308654375	54.796950474425
0	90068	1547827.887004793318	201.86269613894
0	90073	1547866.571287043033	38.684282249715
0	90082	1548324.260817977463	44.834623713512
0	90089	1548446.203126012186	121.94230803472
0	90094	1548559.087161550494	112.88403553831
0	90101	1548580.211776440936	5.922670879178
0	90108	1548590.636678705044	4.769559172074
0	90115	1548834.42062935499	15.725256778543
0	90122	1548999.005804017749	16.936424193457
0	90129	1549384.232163871434	51.410636314997
0	90138	1549492.442404808119	44.628523946274
0	90143	1549498.87293654202	6.430531733901
0	90158	1550031.252117430148	211.69054664351
0	90163	1550140.286065061404	109.03394763126
0	90168	1550172.24507950754	31.959014446136
0	90173	1550204.247158435308	32.002078927768
0	90178	1550213.578225221641	9.331066786333
0	90189	1550424.631273307296	73.268107745394
0	90196	1550504.295532490369	79.664259183073
0	90203	1550620.936682331486	116.64114984112
0	90208	1550652.05731674677	31.120634415284
0	90213	1550666.100553228553	14.043236481783
0	90220	1550705.491590265065	32.025937323227
0	90227	1550923.99200378772	92.018349962799
0	90234	1551056.251112522061	16.048998185604
0	90243	1551140.082173801624	26.588860992466
0	90250	1551213.714122676298	73.631948874674
0	90255	1551280.052223656768	66.33810098047
0	90264	1551304.469075905652	22.462402208372
0	90271	1551332.444740140355	27.975664234703
0	90276	1551380.259360680583	47.814620540228
0	90285	1551415.75326953398	20.733995504261
0	90290	1551451.852789217948	36.099519683968
0	90297	1551485.186638806763	2.634995531156
0	90403	1555136.019020202048	6.448268607412
0	90410	1555183.200835104132	47.181814902084
0	90415	1555200.466821028806	17.265985924674
0	90420	1555207.237244104228	6.770423075422
0	90425	1555210.118073041722	2.880828937494
0	90430	1555229.624823652616	19.506750610894
0	90435	1555239.848725815408	10.223902162792
0	90440	1555283.498826408732	43.650100593324
0	90445	1555285.371546027588	1.872719618856
0	90451	1555307.754817574067	22.383271546479
0	90456	1555354.687658225221	46.932840651154
0	90463	1555374.637574786641	19.94991656142
0	90468	1555382.930075894517	8.292501107876
0	90473	1555405.458700600489	22.528624705972
0	90478	1555418.47010572487	13.011405124381
0	90487	1555501.677651757515	35.900542432458
0	90492	1555512.443427198902	10.765775441387
0	90499	1555577.857056378375	8.088001119778
0	90506	1555706.009787097076	19.100425017691
0	90515	1556106.675251454419	123.17862856427
0	90520	1556160.175954933427	53.500703479008
0	90527	1556240.997537635633	15.465820904196
0	90536	1556798.540343068477	20.488169761247
0	90541	1556895.356891294367	96.81654822589
0	90548	1557096.566319594336	4.172743261833
0	90555	1557411.25331886454	29.981192222578
0	90562	1557455.806012039883	4.63416018584
0	90571	1557635.774326870724	43.276550672289
0	90578	1557690.648452538394	54.87412566767
0	90583	1557706.058920283714	15.41046774532
0	90590	1557820.751390765201	59.035818891576
0	90597	1558078.812573798512	90.239869172694
0	90606	1558367.323841205949	237.95568504618
0	90611	1558381.853385379328	14.529544173379
0	90618	1558474.457642849827	63.698308242137
0	90625	1558490.199200209672	1.891891453133
0	90638	1558729.395115744655	124.1266822316
0	90649	1558893.507776861168	164.11266111651
0	90654	1558921.670623122987	28.162846261819
0	90659	1558926.233085241006	4.562462118019
0	90664	1558935.757227462053	9.524142221047
0	90669	1558950.849356932876	15.092129470823
0	90674	1558952.789424022179	1.940067089303
0	90681	1559065.913828510064	73.757281618173
0	90692	1559212.791768905095	79.595065683008
0	90697	1559216.025247824746	3.233478919651
0	90702	1559288.703055230225	72.677807405479
0	90711	1559416.518742543342	48.245400548243
0	90716	1559433.606618346402	17.08787580306
0	90723	1559632.266051780002	11.961928772988
0	90732	1559802.558038916182	55.956483942008
0	90737	1559811.350462938268	8.792424022086
0	90744	1559831.167506253743	4.162506195474
0	90751	1560028.289251800982	47.872777560555
0	90760	1560339.483755248532	59.487704367872
0	90765	1560346.696136618313	7.212381369781
0	90772	1560473.454014055052	69.625015166229
0	90779	1560584.423060448407	98.073190550943
0	90786	1560717.157774498538	34.068604131673
0	90793	1560897.307801522712	21.115195578112
0	90804	1561058.883296057908	156.18523259953
0	90809	1561076.905772958088	18.02247690018
0	90816	1561082.561537578267	5.655764620179
0	90823	1561121.536830979505	38.975293401238
0	90828	1561168.340624647484	46.803793667979
0	90835	1561181.971051532001	3.946369815256
0	90846	1561412.997585431715	65.45174150404
0	90851	1561419.931838453359	6.934253021644
0	90858	1561448.742792822309	28.81095436895
0	90863	1561454.512529933834	5.769737111525
0	90870	1561522.582306344887	5.450194964336
0	90877	1561620.501455135894	5.454656589024
0	90886	1561754.0081888695	131.98992596142
0	90895	1561814.119743477577	60.111554608077
0	90900	1561922.745285262606	108.62554178503
0	90909	1561938.51767760586	15.772392343254
0	90914	1561989.482862191327	50.965184585467
0	90919	1562069.57222734107	80.089365149743
0	90926	1562207.695835915814	44.843267758828
0	90933	1562216.340252221648	5.145338870872
0	90942	1562409.516724452974	46.270798973978
0	90947	1562440.203767800474	30.6870433475
0	90954	1562565.642688555572	10.5605412689
0	90961	1562595.334339439274	3.022580724611
0	90970	1562710.945542210201	82.226077803446
0	90975	1562723.421086463825	12.475544253624
0	90982	1562832.112934251662	49.071121504973
0	90989	1563031.77391182871	69.967955693842
0	90996	1563138.04097739921	8.367763709152
0	91005	1563266.864019652015	17.995151031691
0	91010	1563311.932538868371	45.068519216356
0	91019	1563628.075866667241	107.28741239845
0	91024	1563679.915194327206	51.839327659965
0	91033	1563804.964991060958	73.785665043109
0	91038	1563830.874880763327	25.909889702369
0	91045	1563892.29785239873	44.834899342355
0	91054	1564010.162562115331	111.5377222482
0	91059	1564021.909321917016	11.746759801685
0	91066	1564213.161846277088	2.31621926555
0	91305	1570246.212151254683	79.783124790407
0	91312	1570286.675423984066	40.463272729383
0	91317	1570353.336865947516	66.66144196345
0	91330	1570592.641311673608	239.30444572609
0	91335	1570612.117473420186	19.476161746578
0	91342	1570715.114646842386	102.9971734222
0	91347	1570741.950122790593	26.835475948207
0	91352	1570764.240571611561	22.290448820968
0	91357	1570802.843796073708	38.603224462147
0	91362	1570834.622497752491	31.778701678783
0	91367	1570884.247883961554	49.625386209063
0	91372	1570891.486316305113	7.238432343559
0	91377	1570905.165861848377	13.679545543264
0	91382	1570923.497118713638	18.331256865261
0	91387	1570963.21301115262	39.715892438982
0	91394	1571017.813909129134	54.600897976514
0	91399	1571097.644561214355	79.830652085221
0	91408	1571196.85151590599	99.206954691635
0	91413	1571197.901408676813	1.049892770823
0	91420	1571288.452590182292	90.551181505479
0	91425	1571303.139951577222	14.68736139493
0	91430	1571324.99704125688	21.857089679658
0	91435	1571343.484742118908	18.487700862028
0	91440	1571352.723425695453	9.238683576545
0	91443	1571352.846641919799	0.123216224346
0	91450	1571399.403258863164	46.556616943365
0	91457	1571473.556672080902	4.124153091612
0	91464	1571683.322133119119	25.001522690163
0	91471	1571880.99998596752	6.621246715244
0	91482	1572226.268478326866	29.460359622854
0	91487	1572234.515632899985	8.247154573119
0	91492	1572236.264950035491	1.749317135506
0	91501	1572657.831668607961	8.402394914336
0	91506	1572681.364794644815	23.533126036854
0	91515	1572968.771443019544	15.525764015451
0	91520	1572986.886698018931	18.115254999387
0	91527	1573029.86371674258	0.647397851904
0	91534	1573123.155819746208	33.624977688896
0	91541	1573138.601242213295	1.406425165413
0	91548	1573188.437217521956	47.441443486311
0	91557	1573419.41300379472	9.973186069833
0	91562	1573437.314068780884	17.901064986164
0	91569	1573493.332003050878	13.479021159684
0	91576	1573514.467380679952	10.352694519206
0	91583	1573626.524917258475	3.986513730191
0	91590	1573815.415948905563	3.254692350212
0	91599	1573909.628412614357	81.054992102261
0	91604	1573916.346225880242	6.717813265885
0	91663	1575301.661641001011	38.22054939119
0	91668	1575313.341810321243	11.680169320232
0	91675	1575340.378805595884	27.036995274641
0	91680	1575402.342933994645	61.964128398761
0	91685	1575434.116777493688	31.773843499043
0	91692	1575495.76095513254	61.644177638852
0	91697	1575496.921007571839	1.160052439299
0	91704	1575548.207237386905	51.286229815066
0	91709	1575615.277004777429	67.069767390524
0	91714	1575617.21354980285	1.936545025421
0	91719	1575723.618419037159	106.40486923431
0	91726	1576420.351987924234	28.011762068097
0	91733	1576524.659921759038	2.203241505631
0	91742	1576668.590836236503	25.770111251289
0	91747	1576779.247981105996	110.65714486949
0	91754	1576952.368220696318	6.997389914203
0	91763	1577281.120594762866	77.523912643285
0	91770	1577321.583421865388	40.462827102522
0	91775	1577325.089052314078	3.50563044869
0	91782	1577406.623402841105	56.25815148507
0	91789	1577539.135475055493	10.547442896354
0	91800	1577925.729326397645	235.189242447
0	91807	1577961.035696687084	35.306370289439
0	91814	1577986.985640874473	25.949944187389
0	91819	1578008.602942843889	21.617301969416
0	91824	1578012.42337515639	3.820432312501
0	91831	1578068.159880740245	33.748185178858
0	91838	1578154.312748001945	0.053323130989
0	91845	1578204.863780206847	4.41590757442
0	91854	1578415.049791764882	84.849166090112
0	91859	1578417.674863337829	2.625071572947
0	91866	1578437.026106028011	7.432655153354
0	91873	1578491.585756319259	8.250536383367
0	91884	1578703.227287905067	99.752246651022
0	91889	1578722.99932807409	19.772040169023
0	91894	1578733.416307677038	10.416979602948
0	91901	1578775.820671770176	23.819155017147
0	91908	1579064.910750307365	60.696194288582
0	91915	1579211.877976943609	43.800697707124
0	91926	1579382.702205955973	67.049654615705
0	91931	1579445.734215532451	63.032009576478
0	91936	1579495.144099438221	49.40988390577
0	91945	1579598.112221787735	26.220696790082
0	91950	1579671.133651209728	73.021429421993
0	91957	1579711.785097173882	33.129671321515
0	91964	1579762.126119386221	50.16445742901
0	91971	1579821.764515790784	22.830018693706
0	91978	1579828.225700649324	0.816651800119
0	91985	1579853.316997356508	16.93450551301
0	91992	1579964.492813448402	25.958700139053
0	92001	1580248.864297968649	35.835069462974
0	92006	1580256.773823322853	7.909525354204
0	92013	1580266.524480904454	6.451307724846
0	92020	1580358.680958803553	56.052653140116
0	92027	1580370.174469920075	9.170271834907
0	92034	1580841.813379854364	25.207503376953
0	92043	1580902.056191381087	5.311400271266
0	92050	1581027.184027118747	125.12783573766
0	92055	1581163.085919520917	135.90189240217
0	92064	1581504.643505428725	37.358154813032
0	92069	1581549.579655632895	44.93615020417
0	92080	1581665.927080159103	37.582719650617
0	92085	1581708.068699850539	42.141619691436
0	92090	1581712.763145984368	4.694446133829
0	92097	1581896.465894561248	72.717772730952
0	92104	1582193.869174536958	39.540948135319
0	92113	1582307.273193803228	86.033152151039
0	92120	1582352.17738565945	44.904191856222
0	92125	1582357.23886298787	5.06147732842
0	92132	1582720.922496608973	17.993033891381
0	92141	1582978.757366937962	96.055453008182
0	92144	1582978.886073696016	0.128706758054
0	92155	1583614.139287811888	77.669428337604
0	92164	1583803.082944653009	188.94365684112
0	92169	1583825.990547239626	22.907602586617
0	92176	1583873.952495037841	47.961947798215
0	92181	1583878.627781271318	4.675286233477
0	92190	1583913.149196064387	16.332302407666
0	92195	1583922.751580625181	9.602384560794
0	92202	1583957.839066124014	19.796827235697
0	92211	1584071.768185766873	47.677447053135
0	92218	1584076.032884563792	4.264698796919
0	92223	1584096.222480021453	20.189595457661
0	92232	1584108.657339896559	6.804247872391
0	92237	1584115.78071902011	7.123379123551
0	92244	1584327.223341081931	44.420944026404
0	92259	1584716.61190612989	126.82004698847
0	92264	1584735.819423737036	19.207517607146
0	92273	1584789.034318980506	53.21489524347
0	92282	1584877.242980505292	88.208661524786
0	92289	1584978.395595305505	101.15261480021
0	92294	1584979.761013320557	1.365418015052
0	92299	1585001.550803279061	21.789789958504
0	92304	1585038.771808251204	37.221004972143
0	92309	1585082.4619333194	43.690125068196
0	92314	1585111.3461787727	28.8842454533
0	92321	1585185.07709357275	7.834140116542
0	92330	1585329.822575707692	104.89191687802
0	92335	1585336.037640180541	6.215064472849
0	92342	1585431.870045223269	17.967097880708
0	92349	1585587.881532266281	3.412202525324
0	92362	1585733.32415709311	117.25169842169
0	92367	1585775.508916573329	42.184759480219
0	92372	1585790.446287026144	14.937370452815
0	92379	1585888.447710134945	98.001423108801
0	92382	1585890.344744081775	1.89703394683
0	92391	1586081.165349193313	172.59170730366
0	92398	1586101.075793537531	7.243198056544
0	92405	1586191.502618470109	18.576666956075
0	92412	1586319.641279499434	58.97061460613
0	92419	1586423.538067050995	16.139864417904
0	92426	1586532.685810348811	2.807814530458
0	92433	1586699.045100342055	6.464566283948
0	92440	1586736.472832980339	0.891218437695
0	92447	1587067.794346671451	25.834095481723
0	92456	1587144.043635181607	57.394743508246
0	92461	1587201.352634789276	57.308999607669
0	92468	1587276.758546006446	3.524629137604
0	92475	1587301.548323170622	0.188295614278
0	92486	1587505.580505022823	78.060594281794
0	92491	1587539.337463388006	33.756958365183
0	92496	1587564.715733869805	25.378270481799
0	92503	1587770.241520257391	0.485150198398
0	92510	1588037.631525746959	73.461103686834
0	92517	1588091.043358062592	9.200263952254
0	92524	1588154.385948945717	6.017381260304
0	92531	1588222.586230593052	1.046231005022
0	92540	1588432.324559152053	94.64797171077
0	92546	1588565.525870480593	133.20131132854
0	92641	1591133.946001174877	50.617799266215
0	92646	1591141.888602666062	7.942601491185
0	92651	1591181.196298951448	39.307696285386
0	92656	1591187.854274159854	6.657975208406
0	92663	1591265.987844501134	78.13357034128
0	92668	1591298.100579468818	32.112734967684
0	92673	1591325.108333249105	27.007753780287
0	92678	1591489.843357363619	164.73502411451
0	92683	1591501.661422567298	11.818065203679
0	92688	1591509.744927919388	8.08350535209
0	92693	1591581.612194689087	71.867266769699
0	92702	1591677.397850928798	95.785656239711
0	92707	1591690.700988458724	13.303137529926
0	92712	1591710.513972294688	19.812983835964
0	92717	1591722.69454644585	12.180574151162
0	92722	1591731.570529544881	8.875983099031
0	92727	1591812.191965096544	80.621435551663
0	92734	1591830.834241227083	16.761340768911
0	92741	1592026.310399818757	22.124586386604
0	92748	1592183.100901532901	2.588584559083