version 2
run Simulations-3-20191218-11:09:12-65753
attr configname Simulations
attr datetime 20191218-11:09:12
attr experiment Simulations
attr inifile omnetpp.ini
attr iterationvars "$seed=7, $0=2400"
attr iterationvarsf seed=7,2400-
attr measurement "$seed=7, $0=2400"
attr network WifiCelNetPassiveQueue
attr processid 65753
attr repetition 0
attr replication #0
attr resultdir results/Simulations/omnet
attr runnumber 3
attr seedset 7
itervar seed 7
param **.numJobs 10000
param *.OFFLOAD.deadline exponential(2400s)
param *.source.interArrivalTime exponential(120s)
param *.WIFI.serviceTime exponential(40s)
param *.CELL.serviceTime exponential(400s)
param *.OFFLOAD.switchToWi exponential(1524s)
param *.OFFLOAD.switchToCel exponential(3120s)
param *.LOCAL.serviceTime exponential(5s)
param *.REMOTE.serviceTime exponential(1s)

vector 0 WifiCelNetPassiveQueue.OFFLOAD queueLength:vector ETV
attr interpolationmode sample-hold
attr title "queue length, vector"
vector 1 WifiCelNetPassiveQueue.OFFLOAD storeDeadline:vector ETV
attr interpolationmode none
attr title "deadline, vector"
attr unit s
vector 2 WifiCelNetPassiveQueue.OFFLOAD storeWifiTime:vector ETV
attr interpolationmode none
attr title "Time in Wifi, vector"
attr unit s
vector 3 WifiCelNetPassiveQueue.WIFI serviceTime:vector ETV
attr interpolationmode none
attr title "wifi Service, vector"
attr unit s
vector 4 WifiCelNetPassiveQueue.WIFI responseTime:vector ETV
attr interpolationmode none
attr title "Response Time, vector"
attr unit s
vector 5 WifiCelNetPassiveQueue.REMOTE serviceTime:vector ETV
attr interpolationmode none
attr title "wifi Service, vector"
attr unit s
vector 6 WifiCelNetPassiveQueue.REMOTE responseTime:vector ETV
attr interpolationmode none
attr title "Response Time, vector"
attr unit s
vector 7 WifiCelNetPassiveQueue.sink lifeTime:vector ETV
attr interpolationmode none
attr title "lifetime of arrived jobs, vector"
attr unit s
vector 8 WifiCelNetPassiveQueue.CELL serviceTime:vector ETV
attr interpolationmode none
attr title "wifi Service, vector"
attr unit s
vector 9 WifiCelNetPassiveQueue.CELL responseTime:vector ETV
attr interpolationmode none
attr title "Response Time, vector"
attr unit s
vector 10 WifiCelNetPassiveQueue.REMOTE queueLength:vector ETV
attr interpolationmode sample-hold
attr title "queue length, vector"
vector 11 WifiCelNetPassiveQueue.OFFLOAD storeCelTime:vector ETV
attr interpolationmode none
attr title "Time in Cell, vector"
attr unit s
vector 12 WifiCelNetPassiveQueue.LOCAL serviceTime:vector ETV
attr interpolationmode none
attr title "wifi Service, vector"
attr unit s
vector 13 WifiCelNetPassiveQueue.LOCAL responseTime:vector ETV
attr interpolationmode none
attr title "Response Time, vector"
attr unit s
vector 14 WifiCelNetPassiveQueue.LOCAL queueLength:vector ETV
attr interpolationmode sample-hold
attr title "queue length, vector"
0	173288	3000592.492107509449	1
0	173289	3000691.687655082139	0
0	173303	3001009.277353417749	1
0	173305	3001097.364721033552	2
0	173306	3001104.173030482574	1
0	173311	3001144.357247272524	0
0	173331	3001598.427712369009	1
0	173332	3001670.383893074107	0
0	173345	3001787.129638587757	1
0	173346	3001822.689439568384	0
0	173415	3003282.882432369928	1
0	173416	3003340.086578433595	0
0	173464	3004299.292142770199	1
0	173465	3004343.829979892636	0
0	173471	3004347.564881133951	1
0	173473	3004358.4569706128	2
0	173474	3004399.772961438728	1
0	173480	3004411.526473547424	2
0	173481	3004496.53651279425	1
0	173486	3004505.948250818918	0
0	173499	3004607.936997470044	1
0	173501	3004612.572338054217	2
0	173503	3004626.036866481195	3
0	173505	3004658.507222228494	4
0	173506	3004689.551203630338	3
0	173512	3004728.852996383037	4
0	173513	3004735.874337527933	3
0	173519	3004793.435676659362	4
0	173520	3004828.478236113065	3
0	173526	3004830.15994253729	4
0	173528	3004897.599510421062	5
0	173529	3004906.959706940397	4
0	173534	3004928.521612850341	3
0	173537	3004933.235639329286	2
0	173544	3004970.130560490901	1
0	173550	3005015.855239184677	2
0	173551	3005049.30019488681	1
0	173557	3005062.616817744856	2
0	173558	3005072.85291425541	1
0	173563	3005096.282139712879	0
0	173590	3005523.750755930652	1
0	173591	3005564.130924696435	0
0	173594	3005605.847233464672	1
0	173600	3005735.680647196709	2
0	173602	3005765.09095453188	3
0	173604	3005767.305972638148	4
0	173606	3005789.426481424131	5
0	173608	3005826.737146984307	6
0	173610	3005833.596065788592	7
0	173612	3005866.532423815847	8
0	173613	3006223.29154248688	7
0	173617	3006315.844843994853	6
0	173623	3006391.815681073593	7
0	173625	3006446.95922619646	8
0	173626	3006470.355582018754	7
0	173630	3006489.970943286474	6
0	173635	3006682.982996430405	7
0	173636	3006686.792327307281	6
0	173640	3006882.647641910799	5
0	173643	3006884.29259276084	6
0	173646	3007056.967368232868	5
0	173651	3007413.892435484703	6
0	173653	3007452.214032258991	7
0	173654	3007503.203609140885	6
0	173657	3007505.262226173661	7
0	173661	3007525.284981359499	8
0	173663	3007532.322676062864	9
0	173664	3007565.480164531126	8
0	173669	3007681.126555906868	7
0	173674	3007703.284878452859	8
0	173675	3007837.888365083906	7
0	173680	3007867.76553526843	6
0	173685	3007907.445786261363	7
0	173687	3007937.984202028008	8
0	173688	3007983.728135377177	7
0	173692	3008020.447402294509	6
0	173696	3008123.513479894578	5
0	173701	3008179.651745537052	6
0	173702	3008292.142773224192	5
0	173707	3008361.508417036174	4
0	173712	3008497.424251718759	5
0	173713	3008510.979924608441	4
0	173719	3008522.940907323618	5
0	173720	3008671.514489864294	4
0	173725	3008733.99518900442	5
0	173727	3008819.928950391984	6
0	173728	3008896.117676312065	5
0	173733	3008942.417337565769	6
0	173735	3008978.278915060925	7
0	173737	3009039.245062889305	8
0	173739	3009077.906194089421	9
0	173741	3009117.071437864753	10
0	173743	3009222.841364976588	11
0	173745	3009254.897123542558	12
0	173746	3009261.117689287852	11
0	173752	3009274.142506637326	12
0	173754	3009296.943562740149	13
0	173755	3009375.331906685534	12
0	173760	3009399.263707682079	13
0	173761	3009505.780139238862	12
0	173765	3009541.635645619919	11
0	173770	3009828.572278053458	12
0	173771	3009858.859702866773	11
0	173773	3009877.448315754384	10
0	173778	3009915.092077392652	9
0	173784	3009919.693773416752	10
0	173785	3009933.265842410037	9
0	173790	3009958.006650358027	8
0	173795	3009992.975083111567	7
0	173800	3010005.151907466923	6
0	173805	3010026.299427768557	5
0	173810	3010033.195964325997	4
0	173815	3010039.473697859958	3
0	173820	3010090.229268943183	2
0	173825	3010100.339756287683	1
0	173830	3010175.294020143614	0
0	173843	3010349.823654748087	1
0	173845	3010399.751023889537	2
0	173846	3010437.372662956771	1
0	173851	3010496.706535410923	0
0	173864	3010619.614882395729	1
0	173866	3010638.350120828927	2
0	173871	3010666.500939578683	1
0	173876	3010808.79559394936	0
0	173897	3011184.616930281906	1
0	173899	3011198.71587564398	2
0	173901	3011260.94303729014	3
0	173903	3011368.279862335056	4
0	173905	3011395.634175581481	5
0	173907	3011758.177442541276	6
0	173909	3012084.074877494548	7
0	173911	3012116.208382131549	8
0	173912	3012219.352295547042	7
0	173915	3012222.556985811632	8
0	173918	3012271.399599884616	7
0	173923	3012378.025772831933	8
0	173925	3012435.34920171257	9
0	173927	3012441.78803467106	10
0	173929	3012541.682649865919	11
0	173930	3012594.976602461402	10
0	173933	3012597.379968825313	11
0	173937	3012599.71011528631	12
0	173939	3012623.860384618056	13
0	173940	3012689.572539812077	12
0	173945	3012729.665743370572	11
0	173951	3012745.574403363689	12
0	173952	3012792.027682079742	11
0	173958	3012906.833011177637	12
0	173959	3013028.605887625646	11
0	173962	3013066.329640737637	12
0	173963	3013129.035817274181	11
0	173968	3013176.64901789665	10
0	173973	3013195.865042679193	9
0	173978	3013221.439282036961	8
0	173985	3013367.584593857609	9
0	173986	3013392.661172555593	8
0	173992	3013395.257913794841	9
0	173997	3013431.233753398888	8
0	174003	3013475.726365139009	9
0	174005	3013521.147863290676	10
0	174006	3013566.165682279803	9
0	174011	3013579.865692775596	8
0	174016	3013636.885851154968	7
0	174021	3013692.871280599973	6
0	174024	3013693.381267265184	5
0	174029	3013695.805715469136	4
0	174036	3013713.333682448899	3
0	174041	3013725.908997825061	2
0	174046	3013732.13200340491	1
0	174051	3013745.221996816016	0
0	174072	3014007.524329212906	1
0	174073	3014138.582032178199	0
0	174076	3014162.636070544393	1
0	174077	3014185.394593925827	0
0	174095	3014556.482912678935	1
0	174097	3014579.966675995305	2
0	174099	3014665.282650477435	3
0	174101	3014721.068881670976	4
0	174102	3014755.89006940746	3
0	174107	3014804.609666447613	4
0	174109	3014872.138821200942	5
0	174111	3014903.877893957062	6
0	174112	3014956.240160147109	5
0	174117	3015070.25698452403	4
0	174121	3015208.78826222506	3
0	174125	3015208.966150335525	4
0	174128	3015244.989192039244	3
0	174133	3015300.403838711572	4
0	174135	3015365.401400023834	5
0	174136	3015384.231132724301	4
0	174141	3015508.918127134658	5
0	174143	3015545.522415295666	6
0	174144	3015736.641118127475	5
0	174150	3015847.436906286971	6
0	174152	3015963.052433705626	7
0	174154	3015987.128442844888	8
0	174156	3016075.382504340365	9
0	174158	3016106.042639409957	10
0	174160	3016125.010879560179	11
0	174162	3016155.105813696989	12
0	174163	3016200.279784664975	11
0	174167	3016223.55024798802	10
0	174171	3016332.938365151517	9
0	174176	3016337.756557352694	8
0	174182	3016489.438503831029	9
0	174184	3016511.508161795446	10
0	174186	3016534.656229160123	11
0	174187	3016633.919299264217	10
0	174192	3016642.702327636321	11
0	174193	3016643.797885695848	10
0	174196	3016660.888647648335	11
0	174198	3016682.772551166691	12
0	174200	3016709.931048955449	11
0	174211	3016749.429041905452	12
0	174213	3016773.099002542144	13
0	174215	3016825.419252428314	12
0	174221	3016897.516665175528	13
0	174223	3016987.265629131369	12
0	174228	3017005.514355760606	11
0	174234	3017016.039302282446	12
0	174236	3017103.490329386097	11
0	174241	3017121.421432449375	10
0	174246	3017196.139832858756	9
0	174252	3017201.081893982377	10
0	174253	3017239.061740105132	9
0	174258	3017262.080216256443	8
0	174263	3017262.894108158087	7
0	174269	3017263.817289618528	8
0	174270	3017275.57150086653	7
0	174275	3017298.575715370744	6
0	174280	3017311.111315481154	5
0	174285	3017317.241081372181	4
0	174290	3017371.221156371554	3
0	174295	3017373.737004074434	2
0	174298	3017419.888675446983	3
0	174299	3017422.951644363773	2
0	174309	3017558.631195637724	3
0	174310	3017627.890423485236	2
0	174315	3017652.119062316506	3
0	174316	3017659.353546837393	2
0	174321	3017741.255148153271	3
0	174323	3017780.670363472437	4
0	174324	3017880.071193663306	3
0	174329	3018050.186627860318	2
0	174334	3018092.329911733694	3
0	174336	3018186.426124705219	4
0	174337	3018201.482364401402	3
0	174341	3018256.438128033361	2
0	174346	3018387.899401699744	1
0	174352	3018473.661151682111	2
0	174354	3018487.163526792323	3
0	174356	3018487.912577497987	4
0	174357	3018637.237680501106	3
0	174359	3018643.403395481939	2
0	174365	3018673.162271935681	3
0	174366	3018699.617081030534	2
0	174371	3018770.759697479302	1
0	174376	3018790.498951113112	0
0	174382	3018794.709107426035	1
0	174383	3018801.585820827206	0
0	174389	3018823.647378263729	1
0	174391	3018840.53765388098	2
0	174393	3018846.630319246409	3
0	174394	3018874.719935592013	2
0	174399	3018918.97621289061	1
0	174404	3018968.430242578391	0
0	174442	3019499.926231035677	1
0	174443	3019513.730586255815	0
0	174449	3019521.969414614	1
0	174450	3019543.07666115369	0
0	174512	3020208.46532888515	1
0	174513	3020249.51533003477	0
0	174575	3021409.570989674081	1
0	174576	3021424.619477917125	0
0	174582	3021453.899498918182	1
0	174583	3021488.947138049567	0
0	174589	3021527.11572119546	1
0	174591	3021573.383001916339	2
0	174592	3021638.419687507908	1
0	174597	3021644.446859984374	0
0	174624	3022111.920711877067	1
0	174626	3022141.264915363333	2
0	174627	3022195.599171030955	1
0	174633	3022230.187191449183	0
0	174661	3022958.708661342663	1
0	174662	3022963.51133888912	0
0	174683	3023290.839146491522	1
0	174684	3023390.686986357309	0
0	174690	3023420.52264918043	1
0	174692	3023559.849660044219	2
0	174694	3023599.541883547958	3
0	174696	3023725.703491629588	4
0	174698	3023729.643383729728	5
0	174700	3023764.982158439979	6
0	174701	3023788.586109228728	5
0	174707	3023964.247969563819	6
0	174708	3023964.688032947626	5
0	174711	3023987.643156868781	6
0	174713	3024095.805520070634	7
0	174714	3024135.25570378005	6
0	174719	3024145.864099614936	5
0	174725	3024146.457498871967	6
0	174726	3024195.919345225151	5
0	174731	3024203.017899343936	4
0	174736	3024258.181678834928	3
0	174741	3024296.846720143695	2
0	174747	3024319.801045092441	3
0	174748	3024337.816693834699	2
0	174754	3024373.44020099485	3
0	174755	3024427.350614663406	2
0	174765	3024471.348404576359	3
0	174766	3024508.381379616207	2
0	174771	3024541.467809976683	1
0	174776	3024569.913028065098	0
0	174789	3024775.768875229353	1
0	174791	3024827.119052024343	2
0	174792	3024836.501394770217	1
0	174797	3024848.38966790721	0
0	174824	3025395.986156249795	1
0	174825	3025415.169930387903	0
0	174831	3025448.216453075184	1
0	174833	3025470.698635509492	2
0	174834	3025518.488608829422	1
0	174840	3025560.576521339785	2
0	174841	3025565.506458549734	1
0	174847	3025565.880260012413	2
0	174849	3025610.911657102796	3
0	174850	3025632.07097191137	2
0	174855	3025649.787284137121	1
0	174860	3025660.698183626971	0
0	174874	3025754.741637480121	1
0	174875	3025904.683132744755	0
0	174881	3025930.974843671618	1
0	174883	3026108.264825174945	2
0	174885	3026337.945961823158	3
0	174887	3026376.930174326669	4
0	174889	3026436.042867412867	5
0	174891	3026438.31519312195	6
0	174892	3026451.921509103293	5
0	174896	3026558.625953035124	4
0	174902	3026615.450810239121	5
0	174904	3026621.523376814295	6
0	174906	3026764.974758912194	7
0	174908	3027002.086865913471	8
0	174910	3027036.822572248975	9
0	174912	3027160.22801043568	10
0	174913	3027284.36074451164	9
0	174919	3027316.27179639954	10
0	174921	3027492.896392405809	11
0	174922	3027618.505007651844	10
0	174927	3027677.741551278644	9
0	174929	3027690.24435219146	8
0	174932	3027690.463610141895	7
0	174939	3027713.116106417575	6
0	174944	3027733.595777313467	5
0	174949	3027741.568600420242	4
0	174954	3027753.028068426898	3
0	174959	3027781.291964363329	2
0	174965	3027831.347904643176	3
0	174970	3027933.248288134895	2
0	174975	3027957.392999707891	1
0	174980	3027988.794772679894	0
0	175007	3028228.094541780111	1
0	175008	3028233.601889817804	0
0	175014	3028251.702264703933	1
0	175015	3028266.933273787121	0
0	175021	3028289.978345106921	1
0	175022	3028349.18039962364	0
0	175091	3029537.712323127802	1
0	175093	3029566.60343937481	2
0	175094	3029571.96500536398	1
0	175099	3029585.835674487451	0
0	175105	3029621.347210129679	1
0	175106	3029669.499278199222	0
0	175197	3031549.098160924034	1
0	175199	3031685.966755803241	2
0	175201	3031728.892930344405	3
0	175203	3031814.621387174703	4
0	175205	3031981.956865265174	5
0	175207	3032043.692076296148	6
0	175209	3032059.458902599664	7
0	175211	3032063.635008172211	8
0	175212	3032079.83590026927	7
0	175216	3032101.140610339572	6
0	175221	3032120.900675887194	5
0	175227	3032139.085687713503	4
0	175232	3032204.763120016915	3
0	175237	3032322.075128030014	2
0	175242	3032341.758143855478	1
0	175247	3032363.321913879807	0
0	175295	3034655.654593593728	1
0	175296	3034684.06208520954	0
0	175323	3035285.029787005942	1
0	175324	3035293.548553247048	0
0	175330	3035324.329401418677	1
0	175332	3035386.284109875643	2
0	175333	3035396.888982735182	1
0	175338	3035413.746671144143	0
0	175344	3035458.891073968011	1
0	175345	3035502.933250204656	0
0	175372	3036107.266360403339	1
0	175374	3036112.604073952564	2
0	175376	3036130.034142757705	3
0	175377	3036141.235165731708	2
0	175382	3036156.757993938397	1
0	175387	3036190.556435198702	0
0	175408	3036352.79764083349	1
0	175409	3036372.049278345405	0
0	175415	3036408.125583637892	1
0	175416	3036463.963970336613	0
0	175436	3036790.182182148752	1
0	175437	3036891.263847704899	0
0	175442	3036963.043327629414	1
0	175444	3036984.987915447769	2
0	175446	3037052.442784846517	3
0	175448	3037128.989994283852	4
0	175450	3037159.513584363208	5
0	175452	3037309.189020527737	6
0	175453	3037321.344508267789	5
0	175458	3037409.508101933257	4
0	175462	3037417.765962407582	3
0	175466	3037564.837650074318	2
0	175472	3037592.965374492514	3
0	175474	3037715.581003643556	4
0	175475	3037757.703594761916	3
0	175481	3037937.648618955098	4
0	175482	3037982.367836872764	3
0	175488	3038006.330640679275	4
0	175490	3038105.822712096315	5
0	175492	3038207.47294061787	6
0	175493	3038217.616061801235	5
0	175498	3038262.134375930593	6
0	175500	3038312.964988017603	7
0	175502	3038412.685409978307	8
0	175504	3038434.066795002749	9
0	175506	3038466.412734570969	10
0	175507	3038470.949574532279	9
0	175512	3038508.200357708592	8
0	175517	3038526.582204864773	9
0	175519	3038598.842841373023	10
0	175520	3038621.753296704434	9
0	175525	3038633.079514559902	10
0	175527	3038651.108880873115	11
0	175528	3038676.983720536602	10
0	175533	3038729.419350698748	9
0	175539	3038951.74625228679	10
0	175540	3038952.241836221666	9
0	175545	3039099.105687567394	8
0	175549	3039421.943153400075	7
0	175552	3039431.311325837251	8
0	175553	3039438.679981333132	7
0	175559	3039515.19278082218	8
0	175561	3039548.993128291399	9
0	175562	3039568.979468052243	8
0	175567	3039594.555817428912	7
0	175573	3039661.231817095954	8
0	175574	3039702.158311191708	7
0	175579	3039705.441687360703	6
0	175585	3039707.582352241278	7
0	175587	3039717.493180748863	8
0	175588	3039753.548020334829	7
0	175594	3039771.919595493076	8
0	175595	3039903.436799050496	7
0	175605	3039962.134116138692	8
0	175606	3039967.250755084766	7
0	175612	3040006.563140088032	8
0	175613	3040094.833177995338	7
0	175619	3040111.742238580661	8
0	175620	3040128.277269644104	7
0	175625	3040189.676691388151	6
0	175628	3040190.658854074923	5
0	175636	3040218.011405979339	6
0	175637	3040255.13991486375	5
0	175642	3040257.64404895815	4
0	175647	3040307.174775119517	3
0	175652	3040340.032084320842	2
0	175657	3040344.104082091473	1
0	175663	3040345.599777153646	2
0	175665	3040369.577812403368	3
0	175666	3040434.811935929637	2
0	175672	3040490.787539075995	3
0	175674	3040499.079596878589	4
0	175675	3040500.744538367567	3
0	175680	3040518.361433030648	2
0	175686	3040520.518454765586	3
0	175687	3040534.749734607922	2
0	175692	3040584.832221696747	1
0	175697	3040636.173434241836	0
0	175739	3041844.091231960813	1
0	175741	3042058.417870438348	2
0	175743	3042075.54181166714	3
0	175745	3042077.674670823249	4
0	175747	3042177.579789644894	5
0	175749	3042199.570371246569	6
0	175751	3042263.673409892022	7
0	175753	3042265.654398477197	8
0	175755	3042360.239732059699	9
0	175757	3042385.37414138427	10
0	175759	3042408.070137157769	11
0	175761	3042408.556605618099	12
0	175762	3042483.693687445877	11
0	175768	3042533.956224170045	12
0	175769	3042724.759232398701	11
0	175771	3042725.20510314796	10
0	175776	3042754.73108174486	9
0	175781	3042826.283920538397	8
0	175786	3042843.369009074264	7
0	175791	3042888.24834205175	6
0	175797	3042890.879020841537	7
0	175798	3042928.531371929236	6
0	175804	3042971.958368854718	7
0	175805	3043069.064871676177	6
0	175811	3043153.13007315588	7
0	175812	3043164.687146513661	6
0	175817	3043167.339309127329	5
0	175821	3043167.753819683088	6
0	175825	3043179.035698930256	7
0	175827	3043202.060184666149	8
0	175828	3043270.599232170766	7
0	175833	3043299.854557032556	6
0	175838	3043303.605326400782	5
0	175844	3043389.432267531691	6
0	175845	3043396.254294245836	5
0	175851	3043402.39785799832	6
0	175852	3043409.900991198064	5
0	175857	3043417.062471962256	4
0	175863	3043428.875532331705	5
0	175864	3043437.366400117281	4
0	175869	3043487.207745450549	3
0	175874	3043488.273029742934	2
0	175879	3043499.670475812706	1
0	175884	3043514.159215325844	0
0	175901	3043809.25435659728	1
0	175903	3043849.013413596945	2
0	175905	3043891.975559217678	3
0	175906	3043915.523954296785	2
0	175911	3043936.506916077616	1
0	175917	3043956.654608628527	2
0	175918	3044149.99688433922	1
0	175921	3044150.073196401015	0
0	175987	3046241.364124976157	1
0	175988	3046272.962613826558	0
0	176057	3047931.015476779933	1
0	176059	3047952.931200747515	2
0	176061	3047984.083015622672	3
0	176062	3048046.060397307723	2
0	176067	3048055.812837667192	1
0	176072	3048085.452913894932	0
0	176085	3048516.603924291465	1
0	176086	3048519.61998828321	0
0	176121	3049085.180979664997	1
0	176123	3049095.434295971826	2
0	176125	3049138.378833700142	3
0	176127	3049508.629556787171	4
0	176129	3049544.938274800311	5
0	176131	3049687.652328012293	6
0	176133	3049763.537135018109	7
0	176134	3049844.71936353436	6
0	176139	3049899.647241406793	7
0	176141	3049984.54598414738	8
0	176143	3050042.796053461106	9
0	176145	3050072.886427885284	10
0	176147	3050179.680768109705	11
0	176148	3050251.885074511141	10
0	176154	3050266.379743930139	11
0	176156	3050507.444984844918	12
0	176157	3050669.169247005883	11
0	176163	3050743.689148398829	12
0	176164	3050758.487536405449	11
0	176168	3050804.225156394298	10
0	176173	3050882.10203136667	9
0	176178	3050938.742366335123	10
0	176179	3051221.227263147744	9
0	176182	3051232.050652239948	10
0	176188	3051235.846040551678	11
0	176189	3051324.710708093607	10
0	176194	3051360.065495427055	9
0	176199	3051378.287871279492	8
0	176205	3051443.916891785477	9
0	176206	3051465.063752941321	8
0	176211	3051489.071938224944	7
0	176217	3051565.730435964775	8
0	176219	3051630.112757470079	7
0	176224	3051647.535995445248	6
0	176230	3051684.617486580325	7
0	176231	3051701.71697774341	6
0	176237	3051716.360629463857	7
0	176238	3051735.157800221826	6
0	176243	3051744.803153779639	5
0	176248	3051745.914147093982	4
0	176254	3051800.303061837314	5
0	176255	3051809.842025241783	4
0	176260	3051825.302122501104	3
0	176265	3051840.215896602863	2
0	176270	3051853.318951641767	1
0	176275	3051937.72425624758	0
0	176309	3052669.015129133852	1
0	176310	3052743.880638209674	0
0	176330	3052928.886472271568	1
0	176331	3052969.208574653073	0
0	176334	3052971.391000618061	1
0	176340	3053013.365075626988	2
0	176342	3053253.741483316372	3
0	176344	3053258.990282656842	4
0	176346	3053361.786197217797	5
0	176347	3053406.860663405173	4
0	176350	3053477.282564360408	5
0	176355	3053541.523596643173	4
0	176360	3053564.770151873014	3
0	176365	3053585.108366729351	2
0	176370	3053587.658605631493	1
0	176375	3053601.413742243381	0
0	176381	3053607.36831802887	1
0	176382	3053617.052369258111	0
0	176389	3053850.83726928921	1
0	176391	3054033.630744849641	2
0	176392	3054042.654530462399	1
0	176397	3054044.424639759138	0
0	176402	3054097.461951957834	1
0	176403	3054213.392709888339	0
0	176417	3054661.307655039455	1
0	176419	3054662.201164858287	2
0	176420	3054674.535781133395	1
0	176426	3054712.984994200713	2
0	176427	3054734.735812684941	1
0	176432	3054778.736315468801	0
0	176452	3055056.799793025827	1
0	176453	3055126.340560053562	0
0	176529	3056145.161268605084	1
0	176530	3056214.694471774497	0
0	176564	3057136.780785104508	1
0	176565	3057299.049734670041	0
0	176571	3057340.205627651331	1
0	176572	3057360.234978792558	0
0	176592	3057519.861016629929	1
0	176593	3057528.171566158378	0
0	176613	3057841.427871900832	1
0	176615	3057861.577618655021	2
0	176616	3057874.954586949399	1
0	176622	3057885.352979084812	2
0	176623	3057888.302295547032	1
0	176628	3057905.245720771275	0
0	176634	3057917.291574699815	1
0	176636	3057974.875069450369	2
0	176637	3057979.409881328341	1
0	176642	3058021.655486035493	0
0	176683	3058826.151233339965	1
0	176684	3058840.350146169132	0
0	176697	3058899.597744570171	1
0	176698	3058985.773473123169	0
0	176704	3058987.926419280938	1
0	176705	3059018.081590974713	0
0	176732	3059615.341694261031	1
0	176733	3059649.818939012132	0
0	176816	3060746.92802390924	1
0	176817	3060755.82615445956	0
0	176858	3062130.010424122401	1
0	176859	3062165.236351751388	0
0	176900	3063079.473647518382	1
0	176901	3063083.619054026513	0
0	176907	3063147.046512209855	1
0	176908	3063181.376404995087	0
0	176921	3063316.779118379068	1
0	176922	3063354.622245702332	0
0	176963	3064232.976494982584	1
0	176964	3064237.176974865708	0
0	176977	3064416.439577517225	1
0	176978	3064463.585026697979	0
0	176991	3064737.124740803214	1
0	176992	3064755.727485776551	0
0	177012	3065296.32106753872	1
0	177013	3065297.538929300752	0
0	177034	3066077.103796827849	1
0	177035	3066144.39940701103	0
0	177049	3066309.006920898002	1
0	177050	3066319.586512217933	0
0	177056	3066333.612219496884	1
0	177058	3066339.609120690867	2
0	177059	3066355.040964770868	1
0	177065	3066403.723899821414	2
0	177067	3066479.510619011334	3
0	177068	3066508.081398643456	2
0	177073	3066601.796678323739	1
0	177079	3066610.383425355331	2
0	177080	3066660.314220192068	1
0	177086	3066675.763813749349	2
0	177087	3066688.158010967607	1
0	177092	3066699.769016793787	0
0	177147	3067814.787246010586	1
0	177148	3067838.857702492324	0
0	177154	3067842.381234314717	1
0	177155	3067849.861267373842	0
0	177182	3068614.123624987668	1
0	177183	3068627.360664239695	0
0	177252	3069877.956183400394	1
0	177253	3069929.303501960906	0
0	177273	3070138.515246207192	1
0	177274	3070145.918747028563	0
0	177309	3070612.273151971318	1
0	177311	3070626.625943688814	2
0	177313	3070784.344050303698	3
0	177315	3070799.494741897483	4
0	177317	3070968.059705108783	5
0	177319	3070996.715145057107	6
0	177321	3071148.869049226627	7
0	177322	3071235.75378638364	6
0	177327	3071237.627853335794	7
0	177329	3071251.88860500787	8
0	177331	3071366.736094421982	9
0	177333	3071383.280001685168	10
0	177335	3071388.73910575801	11
0	177337	3071407.566097801325	12
0	177338	3071438.109396546604	11
0	177342	3071670.3826473913	10
0	177347	3071698.393296598497	11
0	177349	3071702.875601060954	12
0	177350	3071723.578413178159	11
0	177354	3071750.068217496873	10
0	177359	3071810.286268676743	11
0	177360	3071835.566225864381	10
0	177365	3071862.449671133392	9
0	177370	3071927.628001497127	8
0	177376	3071994.183253926298	9
0	177378	3072077.824709807372	10
0	177380	3072267.512272495564	11
0	177381	3072397.298953354217	10
0	177383	3072515.741459572574	9
0	177388	3072525.774161062858	8
0	177394	3072533.489589280703	9
0	177395	3072538.384402151913	8
0	177400	3072575.716682649579	7
0	177403	3072575.913673292418	6
0	177411	3072614.986155406893	7
0	177413	3072634.381061448082	8
0	177414	3072658.790464377689	7
0	177419	3072680.555904120875	6
0	177424	3072709.96658773564	5
0	177429	3072725.099839029569	4
0	177435	3072792.59878294879	5
0	177437	3072828.935617080235	6
0	177438	3072851.243804375419	5
0	177443	3072908.443076346032	4
0	177449	3072950.690067020639	5
0	177451	3072951.434902546549	6
0	177452	3072962.690004914474	5
0	177457	3072985.829254134097	4
0	177462	3073034.440585154178	3
0	177468	3073087.715497111367	4
0	177469	3073129.638680164469	3
0	177474	3073174.732399538351	2
0	177483	3073190.170384534818	1
0	177488	3073241.054529709747	0
0	177522	3073848.701836887403	1
0	177524	3073871.215965532943	2
0	177525	3073874.809639115668	1
0	177528	3073878.426844465652	2
0	177530	3073887.658878890731	3
0	177531	3073897.476700808183	2
0	177537	3073906.841971301386	3
0	177543	3073961.190543292092	4
0	177544	3074049.189242162984	3
0	177550	3074084.220733750517	4
0	177552	3074162.233060652428	5
0	177554	3074226.158008762378	6
0	177556	3074281.713753024109	7
0	177558	3074377.150711245537	8
0	177559	3074442.270160141646	7
0	177564	3074839.650983662916	8
0	177565	3075113.782343820175	7
0	177570	3075117.330155238071	6
0	177576	3075126.255293089696	7
0	177578	3075227.735543322721	8
0	177580	3075259.787774283736	9
0	177582	3075315.623098636591	10
0	177583	3075632.124517770023	9
0	177588	3075642.842165586755	10
0	177589	3075844.217210919164	9
0	177594	3075868.236027789609	10
0	177595	3075924.180808296178	9
0	177601	3075981.496583729586	10
0	177602	3075993.125059986232	9
0	177606	3076009.057182957702	8
0	177612	3076174.436880190915	9
0	177613	3076306.873059203412	8
0	177617	3076488.581357922799	7
0	177622	3076946.358207657335	8
0	177623	3077026.121606311202	7
0	177628	3077037.724539537292	8
0	177630	3077088.56286931137	9
0	177632	3077135.632364610832	10
0	177633	3077284.569855013055	9
0	177636	3077336.56676209838	10
0	177637	3077359.136073153831	9
0	177643	3077421.442865614272	8
0	177648	3077430.940772080382	7
0	177653	3077434.793668024546	6
0	177658	3077505.826124481983	5
0	177664	3077511.509109568265	6
0	177665	3077624.6314980372	5
0	177670	3077723.438828753165	4
0	177679	3077800.965111987357	3
0	177685	3077854.274418475785	4
0	177686	3077903.743185325598	3
0	177691	3077952.542783301454	2
0	177696	3077955.203526063638	1
0	177701	3078032.65070391677	0
0	177707	3078065.284179339409	1
0	177709	3078099.125019758605	2
0	177710	3078102.474586170647	1
0	177715	3078124.986998270715	0
0	177749	3078503.774974352743	1
0	177750	3078509.662283971598	0
0	177784	3078887.085493976008	1
0	177785	3078887.589187626545	0
0	177798	3079058.514460594206	1
0	177800	3079064.955876628658	2
0	177801	3079080.066925730742	1
0	177806	3079091.735690165268	0
0	177819	3079165.833866230821	1
0	177820	3079179.610377589532	0
0	177833	3079587.479038903763	1
0	177835	3079621.20229801462	2
0	177837	3079621.304501670144	3
0	177838	3079678.600529013505	2
0	177843	3079685.343748791524	1
0	177848	3079690.999248148626	0
0	177854	3079720.284193120279	1
0	177856	3079728.354270351316	2
0	177858	3079758.847869231805	3
0	177859	3079781.984092189616	2
0	177864	3079786.901929472322	1
0	177870	3079839.293776976592	2
0	177871	3079841.3541009561	1
0	177877	3079850.5827586	2
0	177878	3079893.255590272323	1
0	177884	3079937.060711666621	2
0	177885	3079964.503203629233	1
0	177890	3079969.599900448737	0
0	177938	3080726.28829074909	1
0	177939	3080795.61198140884	0
0	177952	3080858.589255749683	1
0	177954	3080890.705175904253	2
0	177955	3080963.363040583339	1
0	177960	3080970.763427026729	0
0	177973	3081103.48332083556	1
0	177974	3081109.574444739808	0
0	178001	3081590.861903784244	1