version 2
run Simulations-67-20191218-11:09:25-65753
attr configname Simulations
attr datetime 20191218-11:09:25
attr experiment Simulations
attr inifile omnetpp.ini
attr iterationvars "$seed=65, $0=9000"
attr iterationvarsf seed=65,9000-
attr measurement "$seed=65, $0=9000"
attr network WifiCelNetPassiveQueue
attr processid 65753
attr repetition 0
attr replication #0
attr resultdir results/Simulations/omnet
attr runnumber 67
attr seedset 65
itervar seed 65
param **.numJobs 10000
param *.OFFLOAD.deadline exponential(9000s)
param *.source.interArrivalTime exponential(120s)
param *.WIFI.serviceTime exponential(40s)
param *.CELL.serviceTime exponential(400s)
param *.OFFLOAD.switchToWi exponential(1524s)
param *.OFFLOAD.switchToCel exponential(3120s)
param *.LOCAL.serviceTime exponential(5s)
param *.REMOTE.serviceTime exponential(1s)

vector 0 WifiCelNetPassiveQueue.WIFI serviceTime:vector ETV
attr interpolationmode none
attr title "wifi Service, vector"
attr unit s
vector 1 WifiCelNetPassiveQueue.WIFI responseTime:vector ETV
attr interpolationmode none
attr title "Response Time, vector"
attr unit s
vector 2 WifiCelNetPassiveQueue.REMOTE serviceTime:vector ETV
attr interpolationmode none
attr title "wifi Service, vector"
attr unit s
vector 3 WifiCelNetPassiveQueue.REMOTE responseTime:vector ETV
attr interpolationmode none
attr title "Response Time, vector"
attr unit s
vector 4 WifiCelNetPassiveQueue.sink lifeTime:vector ETV
attr interpolationmode none
attr title "lifetime of arrived jobs, vector"
attr unit s
vector 5 WifiCelNetPassiveQueue.OFFLOAD queueLength:vector ETV
attr interpolationmode sample-hold
attr title "queue length, vector"
vector 6 WifiCelNetPassiveQueue.OFFLOAD storeCelTime:vector ETV
attr interpolationmode none
attr title "Time in Cell, vector"
attr unit s
vector 7 WifiCelNetPassiveQueue.OFFLOAD storeDeadline:vector ETV
attr interpolationmode none
attr title "deadline, vector"
attr unit s
vector 8 WifiCelNetPassiveQueue.LOCAL serviceTime:vector ETV
attr interpolationmode none
attr title "wifi Service, vector"
attr unit s
vector 9 WifiCelNetPassiveQueue.LOCAL responseTime:vector ETV
attr interpolationmode none
attr title "Response Time, vector"
attr unit s
vector 10 WifiCelNetPassiveQueue.OFFLOAD storeWifiTime:vector ETV
attr interpolationmode none
attr title "Time in Wifi, vector"
attr unit s
vector 11 WifiCelNetPassiveQueue.CELL serviceTime:vector ETV
attr interpolationmode none
attr title "wifi Service, vector"
attr unit s
vector 12 WifiCelNetPassiveQueue.CELL responseTime:vector ETV
attr interpolationmode none
attr title "Response Time, vector"
attr unit s
vector 13 WifiCelNetPassiveQueue.REMOTE queueLength:vector ETV
attr interpolationmode sample-hold
attr title "queue length, vector"
vector 14 WifiCelNetPassiveQueue.LOCAL queueLength:vector ETV
attr interpolationmode sample-hold
attr title "queue length, vector"
0	176295	3000195.140499388222	6.648879601028
0	176304	3000302.843251874621	43.413991633853
0	176309	3000331.743550733492	28.900298858871
0	176318	3000778.853214584835	73.263296744816
0	176323	3000790.255317858887	11.402103274052
0	176330	3001112.044217393225	23.801242195136
0	176378	3002834.765516819331	75.942019870926
0	176383	3002837.93552668279	3.170009863459
0	176390	3002889.989027596713	52.053500913923
0	176395	3002930.014085464263	40.02505786755
0	176400	3002951.24028746874	21.226202004477
0	176409	3003040.639995835458	89.399708366718
0	176414	3003157.364101485798	116.72410565034
0	176419	3003206.151695521665	48.787594035867
0	176424	3003322.427943192621	116.27624767096
0	176429	3003401.38707486825	78.959131675629
0	176434	3003439.996791618446	38.609716750196
0	176439	3003451.962793771149	11.966002152703
0	176444	3003495.354391921465	43.391598150316
0	176449	3003521.660444772342	26.306052850877
0	176454	3003618.045240641685	96.384795869343
0	176461	3003648.030253294688	29.985012653003
0	176466	3003661.175273725255	13.145020430567
0	176473	3003718.43627530947	57.261001584215
0	176478	3003730.182175482091	11.745900172621
0	176485	3004087.25959398919	141.49257754561
0	176555	3005575.839175308314	27.561466417068
0	176560	3005597.396535602252	21.557360293938
0	176565	3005630.740086574894	33.343550972642
0	176570	3005633.235312348646	2.495225773752
0	176575	3005723.802179746943	90.566867398297
0	176582	3005761.022013836186	37.219834089243
0	176587	3005791.334894550988	30.312880714802
0	176594	3005810.414548111357	19.079653560369
0	176599	3005843.170667550335	32.756119438978
0	176606	3005887.616597465627	44.445929915292
0	176613	3005934.080280697799	46.463683232172
0	176616	3005934.349418037525	0.269137339726
0	176623	3006013.968724460743	79.619306423218
0	176628	3006016.229640054112	2.260915593369
0	176635	3006121.320225211717	1.678939994734
0	176658	3006652.77206496261	23.672998713457
0	176665	3006737.218433702398	3.168205032573
0	176672	3006806.233284087118	6.085322804407
0	176679	3006894.010759633711	40.58654515649
0	176686	3007128.251822816668	88.154373918894
0	176697	3007262.934095181459	50.445279839396
0	176704	3007281.014038170572	13.676847254692
0	176711	3007305.027993571756	10.190115926053
0	176718	3007391.461328185745	80.816839404197
0	176727	3007672.509849380592	48.857620601638
0	176732	3007722.076278612711	49.566429232119
0	176739	3008419.213112199045	30.382906004529
0	176746	3008483.385666228135	11.814005333848
0	176755	3008589.695688905909	47.694736795995
0	176760	3008594.182726695252	4.487037789343
0	176769	3008848.972271274428	24.903102258503
0	176774	3008866.267133710949	17.294862436521
0	176781	3009130.791860369213	15.700487729267
0	176788	3009234.014975938073	1.064546955459
0	176795	3009273.453930702063	13.88705871795
0	176807	3009633.670984480454	14.445174694547
0	176814	3009754.145318557997	63.958252153579
0	176821	3009780.912652945917	1.354666518624
0	176832	3010049.223594050126	12.029939878613
0	176839	3010175.335798400023	35.183332395389
0	176850	3010264.406321504873	23.752770417718
0	176857	3010348.218778457624	83.812456952751
0	176862	3010384.029328124265	35.810549666641
0	176869	3010447.118308023075	63.08897989881
0	176874	3010456.536130093735	9.41782207066
0	176885	3011023.055742775575	60.981418746362
0	176890	3011058.896003852354	35.840261076779
0	176895	3011067.564144327329	8.668140474975
0	176902	3011172.730964209275	7.480715580666
0	176909	3011272.255767279276	80.097942471779
0	176917	3011538.546084444494	39.824167753429
0	176962	3012551.5532862722	46.549994376715
0	176969	3012569.296357279727	17.743071007527
0	176978	3012682.954890392095	113.65853311237
0	176985	3012774.613623563465	91.65873317137
0	176992	3012821.733288039491	47.119664476026
0	176997	3012830.967601394837	9.234313355346
0	177002	3012867.554562675122	36.586961280285
0	177009	3012945.677856535816	21.514898648987
0	177022	3013224.929965837135	101.99321987181
0	177027	3013284.629256813183	59.699290976048
0	177032	3013286.653595795682	2.024338982499
0	177039	3013330.396737290116	43.743141494434
0	177044	3013335.518394547262	5.121657257146
0	177055	3013466.748280323651	77.074992379053
0	177060	3013476.311627226178	9.563346902527
0	177065	3013522.212612899233	45.900985673055
0	177074	3013604.214004792204	66.787752627274
0	177079	3013609.406577236947	5.192572444743
0	177086	3013641.022854215376	4.689746721606
0	177093	3013724.040941967805	29.067273395368
0	177100	3013925.875162189421	59.884042235781
0	177107	3013993.219236125527	21.192051815051
0	177116	3014264.656612816702	32.495656678114
0	177123	3014319.382388187899	54.725775371197
0	177128	3014340.332704526343	20.950316338444
0	177141	3014673.929200012713	150.71880081218
0	177152	3014819.085054251047	145.15585423833
0	177157	3014875.080715339227	55.99566108818
0	177162	3014944.167961021645	69.087245682418
0	177171	3014991.510199464419	47.342238442774
0	177176	3015015.398756090911	23.888556626492
0	177183	3015031.437572375809	16.038816284898
0	177190	3015081.112862918234	49.675290542425
0	177195	3015186.245686339425	105.13282342119
0	177200	3015188.681170466101	2.435484126676
0	177205	3015212.536424762312	23.855254296211
0	177212	3015233.459686934319	14.37956919175
0	177219	3015583.859139862182	1.135528822234
0	177226	3015636.981723848742	41.816743959876
0	177233	3015803.579893946505	37.17305539803
0	177240	3015956.439422112632	7.755461723798
0	177247	3016351.769166723867	32.265218483601
0	177254	3016411.650136080448	35.903109981314
0	177261	3016432.123623322842	6.70875299986
0	177270	3016538.248702039636	22.407210139682
0	177275	3016573.276835105791	35.028133066155
0	177282	3016646.882016568176	71.886954700299
0	177289	3016689.105830175178	21.470349493924
0	177296	3016799.12222684454	34.455167985625
0	177326	3017285.884190811238	21.495090534481
0	177333	3017362.087086730396	10.854937118832
0	177340	3017441.639727688813	72.351432385677
0	177349	3017945.760948859441	47.800050967731
0	177354	3017952.873709341248	7.112760481807
0	177361	3018189.810983228246	4.289111289939
0	177368	3018254.398395694868	13.516173758918
0	177375	3018316.247023133057	12.804256641821
0	177384	3018410.383797550147	78.609123920952
0	177389	3018440.961537077182	30.577739527035
0	177396	3018539.320099720609	12.385894200852
0	177403	3018954.617418265171	24.515747792875
0	177410	3019244.154778101564	12.850697685
0	177417	3019334.687920680347	3.273870823121
0	177426	3019428.608892057635	23.489347107616
0	177431	3019462.34782434841	33.738932290775
0	177438	3019472.747535375477	3.355718497606
0	177445	3019676.159989055486	21.888762143619
0	177452	3019734.84391220547	48.019664524484
0	177459	3019950.115205811318	43.411545861895
0	177466	3020072.092338930472	53.515228130411
0	177473	3020160.901497875015	62.55840719104
0	177480	3020188.411868769646	0.600612409637
0	177487	3020214.380638010229	6.481152928804
0	177494	3020545.432741130087	3.347473919353
0	177501	3020842.135867809661	70.076773005469
0	177508	3020953.410624383704	25.524463361187
0	177520	3021547.893620039832	25.665953023624
0	177527	3021761.867530576996	6.54803802687
0	177538	3021965.478697911544	175.14915319916
0	177545	3022072.648270029665	33.691041205874
0	177552	3022126.579734474067	24.350339361116
0	177559	3022197.60916820287	50.294194195374
0	177568	3022296.382896221594	94.045566011823
0	177573	3022349.884873006662	53.501976785068
0	177580	3022623.646794640689	53.546115847763
0	177587	3022639.094343156054	13.004071503505
0	177596	3022809.378915249287	47.367837410415
0	177601	3022839.105677764477	29.72676251519
0	177608	3022845.933940617054	5.295465685621
0	177615	3023031.568846476947	17.05444815577
0	177622	3023131.561278017185	12.209802736633
0	177629	3023445.416230722395	5.109984668063
0	177636	3023747.56092665011	68.315274145907
0	177643	3024108.368608008628	79.384262048425
0	177650	3024191.327227201476	23.675109557867
0	177657	3024269.480540826834	58.15194839627
0	177664	3024410.358574372378	11.276794754489
0	177671	3024827.325382132113	32.966683790986
0	177678	3025200.993498619397	96.817008101656
0	177685	3025429.25853348355	36.644628120769
0	177692	3025475.002172491642	38.74943300624
0	177699	3025636.658123062045	0.872779849087
0	177708	3025722.851667643484	28.992824983732
0	177713	3025750.593392365838	27.741724722354
0	177720	3025975.483911642878	0.56700005857
0	177727	3025999.391737695612	20.445475669053
0	177862	3030489.781576394222	39.518830195448
0	177867	3030584.380841702895	94.599265308673
0	177872	3030618.615096519075	34.23425481618
0	177877	3030620.012270661652	1.397174142577
0	177884	3030710.144280870105	90.132010208453
0	177889	3030747.351697028723	37.207416158618
0	177894	3030792.883034048819	45.531337020096
0	177903	3030841.973585056813	49.090551007994
0	177908	3030847.401555669553	5.42797061274
0	177915	3030926.903621127416	79.502065457863
0	177920	3030941.355759956671	14.452138829255
0	177925	3030966.119030217355	24.763270260684
0	177930	3031031.326028678632	65.206998461277
0	177935	3031098.930471950382	67.60444327175
0	177940	3031118.644875365773	19.714403415391
0	177945	3031124.713466763413	6.06859139764
0	177952	3031137.817892702062	13.104425938649
0	177957	3031147.197491462393	9.379598760331
0	177962	3031168.850992569725	21.653501107332
0	177967	3031191.099497603311	22.248505033586
0	177974	3031337.562864499875	146.46336689656
0	177985	3031445.753755833326	108.19089133345
0	177994	3031466.542679214966	20.78892338164
0	177999	3031469.850358518035	3.307679303069
0	178004	3031490.615821279929	20.765462761894
0	178013	3031555.602550211914	64.986728931985
0	178020	3031732.904361544284	177.30181133237
0	178023	3031733.288584230596	0.384222686312
0	178030	3031747.036152037954	13.747567807358
0	178035	3031752.387561064847	5.351409026893
0	178042	3032022.799551393476	73.569939750225
0	178049	3032077.496002009294	16.988849644004
0	178056	3032088.665895184054	4.102206328008
0	178063	3032173.418205286943	32.823082730109
0	178070	3032225.016737710141	20.264002329555
0	178083	3032470.939951036734	91.024822110357
0	178088	3032498.11486813481	27.174917098076
0	178093	3032508.805096390138	10.690228255328
0	178102	3032618.136434653942	109.3313382638
0	178107	3032620.464709522658	2.328274868716
0	178112	3032689.701795552236	69.237086029578
0	178119	3032827.158092795613	17.398965300491
0	178126	3033078.465785803793	36.716590065717
0	178133	3033885.256991037968	15.351901121416
0	178140	3034141.734589203116	32.711235506359
0	178147	3034221.97759458436	0.028142162879
0	178156	3034387.870230682851	20.179679052555
0	178161	3034395.181734284287	7.311503601436
0	178170	3034442.30837717504	35.682496004989
0	178175	3034455.380205602022	13.071828426982
0	178182	3034491.933774219083	36.075012309191
0	178189	3034804.65491811832	107.92864462942
0	178196	3034936.434908301441	1.052529565283
0	178203	3035238.310644006645	15.9421101212
0	178210	3035245.408309130301	1.306696805254
0	178217	3035286.101151807019	17.18879153253
0	178224	3035626.971340987574	72.236862370536
0	178308	3038538.641038497091	35.774952451738
0	178317	3038544.748771048002	6.107732550911
0	178322	3038635.532478750039	90.783707702037
0	178329	3038713.403416449059	77.87093769902
0	178334	3038753.775972710896	40.372556261837
0	178339	3038830.663885857141	76.887913146245
0	178344	3038854.636270955576	23.972385098435
0	178349	3038860.180505362719	5.544234407143
0	178354	3038898.580439522812	38.399934160093
0	178359	3038899.468816476277	0.888376953465
0	178366	3039302.728891758643	5.207134020534
0	178375	3039507.138435662389	71.854677826933
0	178382	3039558.567112136307	51.428676473918
0	178391	3039572.796968970783	14.229856834476
0	178396	3039650.291400272529	77.494431301746
0	178401	3039694.367562531305	44.076162258776
0	178410	3039900.830356553668	42.520426844341
0	178415	3039915.365064244145	14.534707690477
0	178428	3040043.261906127083	57.542145620142
0	178433	3040083.162487243693	39.90058111661
0	178438	3040096.082115907898	12.919628664205
0	178443	3040104.250286872506	8.168170964608
0	178450	3040190.284119053377	8.6875213658
0	178457	3040398.466856275647	18.263712740911
0	178464	3040452.405790502253	1.394457624732
0	178475	3040702.017255256597	115.33502111577
0	178480	3040705.770259029976	3.753003773379
0	178485	3040717.275175681222	11.504916651246
0	178492	3040854.837265976391	16.680558744942
0	178499	3040971.121080152438	103.26627621279
0	178506	3041175.407606040341	6.994680832753
0	178513	3041246.771152926435	70.277398995509
0	178520	3041279.142705280955	2.795557661617
0	178527	3041303.88068151479	3.451680316966
0	178534	3041443.345565313871	15.587130286155
0	178541	3041509.845578556459	17.762876730928
0	178548	3041548.931803839485	7.843785834125
0	178555	3041690.279407211837	6.250811560329
0	178562	3041830.494935237458	7.080606021144
0	178569	3041929.998789871417	17.412882480168
0	178576	3041999.295543095226	17.508527433816
0	178583	3042139.57303506936	8.009729944479
0	178592	3042313.662047533357	19.188122387976
0	178599	3042521.570341381921	207.90829384856
0	178604	3042554.266352588477	32.696011206556
0	178613	3042693.874055281703	37.167513649489
0	178618	3042701.413516641153	7.53946135945
0	178625	3042729.072435619124	16.892143205724
0	178632	3042925.568737504461	51.17564777053
0	178639	3043031.828682984828	40.780123690503
0	178646	3043283.059382106284	39.18211128436
0	178653	3043292.873998294444	7.728167927151
0	178660	3043316.526177154391	1.870493540671
0	178669	3043432.223364459915	61.557767006184
0	178674	3043532.028512433994	99.805147974079
0	178683	3043797.059690199046	126.97728436961
0	178688	3043803.957973015109	6.898282816063
0	178695	3043893.63672394129	1.205022456796
0	178702	3044147.382997122017	6.872277176852
0	178709	3044413.091477069376	38.319290703779
0	178718	3044695.494982891675	41.53209270212
0	178723	3044740.507432840105	45.01244994843
0	178730	3044747.202113691772	4.766915092054
0	178737	3044843.143983227043	1.987509251823
0	178746	3045025.513046395479	56.801360960526
0	178751	3045028.328525004136	2.815478608657
0	178758	3045309.083821091918	215.21003134092
0	178765	3045409.093738113019	8.038791805448
0	178829	3046960.534185001388	55.47384061894
0	178834	3046963.8482984748	3.314113473412
0	178841	3046996.707690262421	32.859391787621
0	178850	3047075.348952766443	78.641262504022
0	178855	3047104.388209199351	29.039256432908
0	178862	3047486.759175438906	7.215132485781
0	178888	3048319.677045431552	27.448878866696
0	178899	3048460.346474574617	44.940233273073
0	178906	3048508.797194659432	40.003334042428
0	178913	3048842.740389797912	27.81286032054
0	178920	3049017.447460056926	1.788653224395
0	178927	3049187.220366779957	72.646978303272
0	178936	3049316.232087746288	95.602955449607
0	178943	3049375.212156106421	58.980068360133
0	178950	3049411.252989784914	36.040833678493
0	178955	3049516.679644210445	105.42665442553
0	178962	3050568.559197693838	17.96212560762
0	178969	3050632.177151856051	56.598095583104
0	178976	3050708.217353495358	0.859346180456
0	178983	3050845.091997873483	40.557423711521
0	178990	3051044.659344324345	36.718956041728
0	178997	3051082.203230351487	15.981673595207
0	179004	3051173.933519811534	12.917270263261
0	179011	3051287.355478159385	24.962496037904
0	179018	3051543.784968280723	73.605159936684
0	179031	3051757.048092471179	166.61235676915
0	179036	3051759.429172202983	2.381079731804
0	179041	3051778.517708684367	19.088536481384
0	179046	3051793.785934351057	15.26822566669
0	179053	3051950.245581572156	110.54213379375
0	179060	3052291.875115179827	2.895656704535
0	179093	3053713.583353931894	5.679029660125
0	179108	3053851.298765705234	39.681178230318
0	179113	3053921.65935879947	70.360593094236
0	179120	3053948.849219483952	27.189860684482
0	179125	3053996.612256270656	47.763036786704
0	179132	3054123.227726257202	6.965219416715
0	179139	3054249.178765145965	37.503922095736
0	179146	3054417.240079059652	103.02229671094
0	179153	3054430.128367185391	9.164878727858
0	179160	3054569.2730913762	12.976567611529
0	179167	3054702.645812684104	13.626885764934
0	179174	3054825.473319450253	40.139949483117
0	179183	3054939.501186182222	49.976774800801
0	179188	3054956.976906463938	17.475720281716
0	179195	3054986.979352467258	18.839486737715
0	179208	3055692.122611923855	138.30682954274
0	179213	3055693.706909810553	1.584297886698
0	179220	3055730.807875301346	37.100965490793
0	179225	3055766.77534211176	35.967466810414
0	179236	3055910.988766512652	144.21342440089
0	179243	3055968.283076404975	57.294309892323
0	179248	3055970.707567524301	2.424491119326
0	179253	3056009.712942625731	39.00537510143
0	179269	3056295.875952477708	286.16300985198
0	179283	3057007.539026373537	19.360324533857
0	179288	3057020.629342239749	13.090315866212
0	179295	3057042.850220872624	22.220878632875
0	179300	3057048.339574583279	5.489353710655
0	179307	3057078.24577530572	29.906200722441
0	179314	3057187.998327129541	109.75255182382
0	179319	3057193.825123611655	5.826796482114
0	179402	3059212.399217675378	9.309872839987
0	179407	3059249.27510812008	36.875890444702
0	179414	3059278.546110816218	29.271002696138
0	179421	3059371.6672210009	93.121110184682
0	179428	3059376.229483160278	4.562262159378
0	179435	3059396.261223031213	20.031739870935
0	179440	3059447.001387829221	50.740164798008
0	179445	3059477.499219030562	30.497831201341
0	179450	3059496.095758478449	18.596539447887
0	179455	3059501.922471109158	5.826712630709
0	179458	3059503.49468227783	1.572211168672
0	179465	3059536.479064533122	32.984382255292
0	179472	3059776.85559398114	3.131239479861
0	179479	3059944.44939933883	37.809261824728
0	179486	3060031.921247839395	64.353527895746
0	179493	3060114.853449286288	74.301938489346
0	179500	3060279.879071425312	9.071441320759
0	179507	3060384.946998040044	57.919573437628
0	179516	3060479.071623619432	66.437712500478
0	179521	3060504.154612140024	25.082988520592
0	179528	3060611.718732502774	33.547711780521
0	179535	3060826.85539638281	21.3800748786
0	179560	3061874.687127923866	11.077072323939
0	179565	3061940.225894242963	65.538766319097
0	179578	3062055.090200065075	114.86430582211
0	179583	3062071.905463389369	16.815263324294
0	179588	3062120.095905674176	48.190442284807
0	179595	3062190.65588093717	70.559975262994
0	179600	3062215.006317192431	24.350436255261
0	179607	3062417.499932874067	26.75743931187
0	179614	3062679.138079063692	33.844637492918
0	179621	3062706.239757460506	10.523046769495
0	179628	3062776.650302701913	46.731553348749
0	179635	3062921.910882453924	34.156854042154
0	179644	3063039.351315492894	39.942720017725
0	179649	3063065.805808805983	26.454493313089
0	179656	3063114.492364095367	13.71474782455
0	179663	3063366.643510473461	48.747922837102
0	179672	3063435.699119024796	16.449967473341
0	179677	3063510.484808371886	74.78568934709
0	179684	3063759.649784810986	21.459713930743
0	179691	3063895.824461913922	26.171331054822
0	179700	3064163.439294375244	127.8353906607
0	179705	3064171.014549028771	7.575254653527
0	179712	3064306.634177572819	116.34060306704
0	179721	3064393.977695464571	50.729113915031
0	179724	3064394.051671520116	0.073976055545
0	179733	3064460.972266605518	17.835061746926
0	179742	3064561.887694593646	59.662167266517
0	179747	3064603.004132568031	41.116437974385
0	179754	3064743.872331120756	93.072487115035
0	179761	3064866.471132119503	19.673404340068
0	179768	3064882.366651571062	1.320588047837
0	179775	3064887.732319829423	0.867063982752
0	179782	3064949.538333975547	9.302352423493
0	179796	3065576.505087492837	64.623107929225
0	179801	3065577.838359978653	1.333272485816
0	179812	3065766.308551944907	25.721118948696
0	179819	3065836.392815214575	33.681584167043
0	179826	3066009.505811409793	63.858357737044
0	179833	3066230.492923986837	13.34218725513
0	179840	3066321.651531418578	87.571835026193
0	179847	3066397.226450299245	54.522771363488
0	179978	3070592.979441851652	24.894482841261
0	179983	3070600.980346846601	8.000904994949
0	179988	3070606.428878353637	5.448531507036
0	179993	3070607.330713304798	0.901834951161
0	180002	3070668.399299489789	61.068586184991
0	180007	3070672.249119034251	3.849819544462
0	180014	3070812.534704232011	140.28558519776
0	180019	3070816.417781667235	3.883077435224
0	180024	3070817.793545686761	1.375764019526
0	180033	3070874.252760247934	56.459214561173
0	180040	3070884.857624037523	10.604863789589
0	180045	3070903.081594423115	18.223970385592
0	180050	3070931.217017571774	28.135423148659
0	180055	3070933.903951563484	2.68693399171
0	180060	3070942.701301705146	8.797350141662
0	180067	3070969.217873857117	26.516572151971
0	180072	3071004.312185822695	35.094311965578
0	180077	3071019.957977270022	15.645791447327
0	180088	3071117.759688568857	24.065997489715
0	180093	3071136.481707524157	18.7220189553
0	180098	3071141.739198490925	5.257490966768
0	180105	3071322.399924961937	2.662401427622
0	180112	3071357.269939760971	19.125285953869
0	180125	3071577.081290261958	114.63922016367
0	180130	3071579.517197694365	2.435907432407
0	180137	3071630.42216265823	50.904964963865
0	180142	3071644.895195218314	14.473032560084
0	180151	3071850.445401084885	205.55020586657
0	180156	3071865.666538746185	15.2211376613
0	180167	3071932.358795100577	66.692256354392
0	180172	3071946.527767504209	14.168972403632
0	180177	3071963.201215165659	16.67344766145
0	180184	3072103.851298324745	140.65008315909
0	180189	3072166.545936726391	62.694638401646
0	180261	3074010.195418054044	26.969392723601
0	180266	3074025.678566842672	15.483148788628
0	180273	3074086.799846906541	61.121280063869
0	180280	3074193.250136693955	106.45028978741
0	180285	3074260.66531003761	67.415173343655
0	180290	3074272.808302305875	12.142992268265
0	180295	3074275.938085272023	3.129782966148
0	180302	3074309.985808647383	34.04772337536
0	180307	3074341.229698265192	31.243889617809
0	180316	3074380.113426621662	38.88372835647
0	180321	3074410.798968801119	30.685542179457
0	180326	3074442.841676248565	32.042707447446
0	180331	3074456.397524948045	13.55584869948
0	180338	3074499.796690629625	28.720655916934
0	180345	3074561.808136482529	0.277146184455
0	180352	3074820.408869010316	51.926049475884
0	180363	3074988.692938591836	25.248758936034
0	180370	3075042.219833419965	0.263877308816
0	180381	3075180.996140145044	105.94905413445
0	180386	3075190.994097393069	9.997957248025
0	180393	3075244.429307583764	53.435210190695
0	180398	3075299.239301527458	54.809993943694
0	180405	3075494.75050436319	114.25602252904
0	180412	3075761.787015376272	5.377584986421
0	180421	3075930.895860814634	23.536346074189
0	180426	3075961.116886509783	30.221025695149
0	180433	3076390.824652707138	24.28876520574
0	180440	3076479.254171886314	56.693045943349
0	180447	3076530.550548356237	43.411354499761
0	180454	3076635.491417420528	41.456159502913
0	180461	3076810.752567096589	0.244764364657
0	180482	3077163.574760488174	7.331729351443
0	180487	3077177.942961794901	14.368201306727
0	180498	3077424.426745397425	139.99234509836
0	180503	3077439.124645088868	14.697899691443
0	180510	3077484.327548512685	45.202903423817
0	180515	3077487.144151869091	2.816603356406
0	180522	3077843.209000236053	34.925043261443
0	180535	3077938.108239673501	63.351255413918
0	180540	3077976.801499024106	38.693259350605
0	180545	3078008.560678729204	31.759179705098
0	180556	3078116.696519124854	108.13584039565
0	180563	3078149.355325119424	32.65880599457
0	180570	3078190.503958253136	41.148633133712
0	180579	3078275.374405413885	84.870447160749
0	180584	3078300.595896993353	25.221491579468
0	180591	3078313.441800748525	12.845903755172
0	180596	3078329.176808749116	15.735008000591
0	180605	3078574.920053704444	124.73273074244
0	180610	3078616.807107701816	41.887053997372
0	180617	3078712.125026032041	24.104450839153
0	180640	3079752.420259202354	15.641748547853
0	180647	3079858.898833891637	34.334854204639
0	180658	3080094.555726055608	100.71336247931
0	180667	3080256.433024574508	161.8772985189
0	180674	3080522.916002357777	266.48297778327
0	180679	3080527.792654179296	4.876651821519
0	180686	3080597.823645877056	70.03099169776
0	180691	3080617.679233903259	19.855588026203
0	180696	3080621.444875574307	3.765641671048
0	180709	3080863.302693562838	108.35067647047
0	181082	3090448.236104123108	1.760795136039
0	181087	3090452.836600928879	4.600496805771
0	181092	3090454.53802024597	1.701419317091
0	181095	3090458.051712441209	3.513692195239
0	181111	3090552.869483925503	94.817771484294
0	181116	3090574.914073574206	22.044589648703
0	181121	3090625.116360522711	50.202286948505
0	181126	3090646.222607642727	21.106247120016
0	181133	3090682.559305399227	36.3366977565
0	181140	3090725.884566691417	43.32526129219
0	181145	3090761.344687604048	35.460120912631
0	181154	3090793.578148331718	32.23346072767
0	181159	3090796.808979088247	3.230830756529
0	181164	3090819.16473467592	22.355755587673
0	181169	3090852.323512825926	33.158778150006
0	181174	3090864.326144853746	12.00263202782
0	181179	3090869.308196026208	4.982051172462
0	181188	3090913.833865375593	44.525669349385
0	181193	3090955.769673472042	41.935808096449
0	181198	3091037.998933236844	82.229259764802
0	181203	3091059.321346443306	21.322413206462
0	181208	3091132.603169268459	73.281822825153
0	181214	3091165.279861097277	32.676691828818
0	181219	3091196.288047854327	31.00818675705
0	181224	3091213.903287359164	17.615239504837
0	181227	3091214.6598756462	0.756588287036
0	181234	3091237.925191084813	23.265315438613
0	181239	3091252.880497143472	14.955306058659
0	181246	3091288.924134600088	36.043637456616
0	181253	3091322.246280818398	33.32214621831
0	181260	3091383.397805731918	61.15152491352
0	181265	3091432.273663367648	48.87585763573
0	181270	3091464.89736029658	32.623696928932
0	181275	3091499.418253120319	34.520892823739
0	181280	3091511.33524791343	11.916994793111
0	181285	3091602.415991003795	91.080743090365
0	181290	3091608.549528248429	6.133537244634
0	181295	3091652.36774161953	43.818213371101
0	181300	3091777.540196767776	125.17245514825
0	181309	3091869.909861408702	92.369664640926
0	181314	3091956.669622000417	86.759760591715
0	181321	3092079.751023317677	123.08140131726
0	181326	3092087.379774572807	7.62875125513
0	181331	3092128.313879426277	40.93410485347
0	181336	3092132.462411881364	4.148532455087
0	181341	3092186.258965502175	53.796553620811
0	181348	3092280.559745393235	94.30077989106
0	181353	3092285.969468658248	5.409723265013
0	181358	3092357.882648781159	71.913180122911
0	181363	3092401.927774922042	44.045126140883
0	181368	3092436.737116783086	34.809341861044
0	181373	3092474.06325857066	37.326141787574
0	181378	3092559.184467191132	85.121208620472
0	181383	3092582.954747206871	23.770280015739
0	181396	3092745.550671488859	162.59592428199
0	181403	3092776.436446329523	30.885774840664
0	181408	3092825.520419054373	49.08397272485
0	181413	3092831.776532384253	6.25611332988
0	181418	3092888.067354958579	56.290822574326
0	181423	3093038.70114184075	150.63378688217
0	181430	3093156.765465708417	118.06432386767
0	181435	3093172.012403596385	15.246937887968
0	181440	3093198.469667149868	26.457263553483
0	181447	3093229.619335739227	31.149668589359
0	181452	3093289.392094390555	59.772758651328
0	181459	3093592.812317668236	49.347068359474
0	181468	3093669.565487971009	65.753666883524