version 2
run Simulations-5-20191215-22:53:53-18910
attr configname Simulations
attr datetime 20191215-22:53:53
attr experiment Simulations
attr inifile omnetpp.ini
attr iterationvars "$seed=7, $0=3600"
attr iterationvarsf seed=7,3600-
attr measurement "$seed=7, $0=3600"
attr network WifiCelNetPassiveQueue
attr processid 18910
attr repetition 0
attr replication #0
attr resultdir results/Simulations/omnet
attr runnumber 5
attr seedset 7
itervar seed 7
param **.numJobs 14000
param *.OFFLOAD.deadline exponential(3600s)
param *.source.interArrivalTime exponential(120s)
param *.WIFI.serviceTime exponential(40s)
param *.CELL.serviceTime exponential(400s)
param *.OFFLOAD.switchToWi exponential(1524s)
param *.OFFLOAD.switchToCel exponential(3120s)
param *.LOCAL.serviceTime exponential(5s)
param *.REMOTE.serviceTime exponential(1s)

vector 0 WifiCelNetPassiveQueue.WIFI serviceTime:vector ETV
attr interpolationmode none
attr title "wifi Service, vector"
attr unit s
vector 1 WifiCelNetPassiveQueue.WIFI responseTime:vector ETV
attr interpolationmode none
attr title "Response Time, vector"
attr unit s
vector 2 WifiCelNetPassiveQueue.REMOTE serviceTime:vector ETV
attr interpolationmode none
attr title "wifi Service, vector"
attr unit s
vector 3 WifiCelNetPassiveQueue.REMOTE responseTime:vector ETV
attr interpolationmode none
attr title "Response Time, vector"
attr unit s
vector 4 WifiCelNetPassiveQueue.sink lifeTime:vector ETV
attr interpolationmode none
attr title "lifetime of arrived jobs, vector"
attr unit s
vector 5 WifiCelNetPassiveQueue.OFFLOAD queueLength:vector ETV
attr interpolationmode sample-hold
attr title "queue length, vector"
vector 6 WifiCelNetPassiveQueue.REMOTE queueLength:vector ETV
attr interpolationmode sample-hold
attr title "queue length, vector"
vector 7 WifiCelNetPassiveQueue.OFFLOAD storeCelTime:vector ETV
attr interpolationmode none
attr title "Time in Cell, vector"
attr unit s
vector 8 WifiCelNetPassiveQueue.OFFLOAD storeDeadline:vector ETV
attr interpolationmode none
attr title "deadline, vector"
attr unit s
vector 9 WifiCelNetPassiveQueue.LOCAL serviceTime:vector ETV
attr interpolationmode none
attr title "wifi Service, vector"
attr unit s
vector 10 WifiCelNetPassiveQueue.LOCAL responseTime:vector ETV
attr interpolationmode none
attr title "Response Time, vector"
attr unit s
vector 11 WifiCelNetPassiveQueue.CELL serviceTime:vector ETV
attr interpolationmode none
attr title "wifi Service, vector"
attr unit s
vector 12 WifiCelNetPassiveQueue.CELL responseTime:vector ETV
attr interpolationmode none
attr title "Response Time, vector"
attr unit s
vector 13 WifiCelNetPassiveQueue.OFFLOAD storeWifiTime:vector ETV
attr interpolationmode none
attr title "Time in Wifi, vector"
attr unit s
vector 14 WifiCelNetPassiveQueue.LOCAL queueLength:vector ETV
attr interpolationmode sample-hold
attr title "queue length, vector"
0	87633	1500121.376466174107	8.676683793783
0	87640	1500557.727280164318	47.374771886638
0	87649	1500620.117518962076	47.427525965008
0	87654	1500680.103198818601	59.985679856525
0	87667	1500901.127265861402	145.39083193898
0	87674	1500921.969477669674	20.842211808272
0	87679	1501019.709149371523	97.739671701849
0	87684	1501025.476226266142	5.767076894619
0	87687	1501025.713862536297	0.237636270155
0	87696	1501559.190197750153	37.18248145972
0	87703	1501626.087340186622	53.675167729246
0	87716	1501812.420191556734	77.870544184931
0	87721	1501825.636290475103	13.216098918369
0	87726	1501860.236604996214	34.600314521111
0	87731	1501875.610403549896	15.373798553682
0	87738	1502112.517875183325	19.43861035431
0	87745	1502137.666069220773	16.977442245477
0	87752	1502301.35281915637	36.950402171972
0	87761	1502528.213507796075	83.339726741442
0	87766	1502596.861433355185	68.64792555911
0	87773	1502681.020664588225	44.444775924148
0	87780	1502847.789323765456	3.576973995867
0	87787	1502927.140615304689	21.505003003539
0	87794	1502934.729755319372	4.79740749727
0	87801	1503126.491219226763	49.511512626591
0	87808	1503249.570244091988	10.984455410269
0	87815	1503541.95023658066	55.71063574524
0	87822	1503663.897207392124	10.986307257852
0	87831	1503890.979092875239	72.19131049787
0	87836	1503908.029348733051	17.050255857812
0	87843	1503937.410115460918	23.982627978284
0	87850	1504046.443506382899	31.753355395936
0	87995	1507511.736065427719	48.693391976743
0	88000	1507550.963577306946	39.227511879227
0	88005	1507602.468750445299	51.505173138353
0	88018	1507670.916821803724	68.448071358425
0	88023	1507672.313131963273	1.396310159549
0	88028	1507698.325391330593	26.01225936732
0	88033	1507823.502437796267	125.17704646567
0	88038	1507840.377409402911	16.874971606644
0	88044	1507899.321512132834	58.944102729923
0	88047	1507899.765084201556	0.443572068722
0	88054	1507986.85460136828	87.089517166724
0	88059	1507992.205820219185	5.351218850905
0	88064	1508010.65342943959	18.447609220405
0	88069	1508014.723400678322	4.069971238732
0	88074	1508042.764883305797	28.041482627475
0	88079	1508061.946010152137	19.18112684634
0	88085	1508086.469287523114	24.523277370977
0	88090	1508095.154089720316	8.684802197202
0	88095	1508132.966561563372	37.812471843056
0	88100	1508139.581959764003	6.615398200631
0	88105	1508169.353596600866	29.771636836863
0	88110	1508202.449772116849	33.096175515983
0	88113	1508202.949047714099	0.49927559725
0	88122	1508269.855235389118	13.532751431355
0	88129	1508294.516152028522	3.979383389762
0	88138	1508492.012135109859	121.57387244713
0	88143	1508513.964034835054	21.951899725195
0	88150	1508643.379254702617	1.558265969863
0	88157	1508753.310114942752	67.55371406761
0	88164	1508853.985608138671	47.26281253343
0	88171	1508914.461776776593	10.828425686279
0	88178	1509129.069107666746	12.0740146986
0	88185	1509500.437126715053	49.193773369437
0	88192	1509506.150304353643	3.258884968619
0	88199	1509856.512143570252	32.561407285418
0	88208	1510017.578235352233	96.541029000466
0	88213	1510023.323718817461	5.745483465228
0	88220	1510063.75541273491	5.738360100789
0	88227	1510086.455851741786	1.795621779946
0	88236	1510383.041272334201	148.16890621522
0	88241	1510437.04923887623	54.007966542029
0	88248	1510517.593657992347	21.547798059613
0	88257	1510681.447430812802	119.37440226398
0	88262	1510693.387482548251	11.940051735449
0	88269	1510725.169186379692	3.831553462631
0	88298	1512351.457145485972	145.33860783891
0	88303	1512381.409919185186	29.952773699214
0	88308	1512471.181250746158	89.771331560972
0	88315	1512531.805795478932	60.624544732774
0	88320	1512540.75475514131	8.948959662378
0	88327	1512559.563559209341	0.616519409389
0	88334	1512788.255755292588	57.810416223088
0	88341	1512841.08790180069	50.691646304083
0	88348	1513028.526156577228	30.780357710612
0	88355	1513153.150229221795	73.159045979827
0	88362	1513647.847117735853	31.292042582435
0	88371	1513747.950039422008	16.325599247893
0	88376	1513759.287214203458	11.33717478145
0	88383	1513778.591837386018	10.300983796762
0	88390	1513863.3643216735	65.807770611789
0	88397	1514063.25182070156	63.238659199444
0	88404	1514112.312568667432	26.231643629614
0	88413	1514322.414698644367	90.064587547781
0	88418	1514329.395078288748	6.980379644381
0	88425	1514736.211160353906	89.469219357104
0	88432	1514856.93684584712	110.80219216058
0	88441	1515133.686310012803	86.429055288137
0	88446	1515148.510853257289	14.824543244486
0	88453	1515346.57056163318	174.58832096817
0	88460	1515365.758800565537	3.600499078116
0	88467	1515531.851970680168	60.178746599928
0	88478	1515741.325784213144	72.39576316507
0	88599	1519617.275405178337	53.253252321751
0	88608	1519639.555731399045	22.280326220708
0	88613	1519646.928385686515	7.37265428747
0	88618	1519675.671459051586	28.743073365071
0	88623	1519677.463174999169	1.791715947583
0	88628	1519705.755896065485	28.292721066316
0	88633	1519731.011504904184	25.255608838699
0	88638	1519769.88743370668	38.875928802496
0	88643	1519823.037079271723	53.149645565043
0	88648	1519859.643451727647	36.606372455924
0	88653	1519871.765196601393	12.121744873746
0	88658	1519929.876704685259	58.111508083866
0	88667	1519986.232749895215	56.356045209956
0	88672	1520015.178056511099	28.945306615884
0	88677	1520022.018219360792	6.840162849693
0	88682	1520023.296462081998	1.278242721206
0	88689	1520151.743364267858	128.44690218586
0	88694	1520161.998052772999	10.254688505141
0	88699	1520165.247059737209	3.24900696421
0	88704	1520197.827686917838	32.580627180629
0	88709	1520220.865804292052	23.038117374214
0	88714	1520235.519778339656	14.653974047604
0	88721	1520466.414602096053	64.41931905619
0	88728	1520513.24258017472	1.854536670381
0	88735	1520539.326886800071	0.976645170746
0	88742	1520862.515522992344	28.650747252698
0	88749	1520926.616208338081	47.917371913233
0	88756	1521010.057605520235	16.154171160551
0	88763	1521162.935639324639	17.553529449634
0	88770	1521299.810874182016	15.278110492721
0	88777	1521786.197433955629	33.78165800263
0	88786	1522189.326598486816	53.868633727669
0	88791	1522217.09334335021	27.766744863394
0	88798	1522576.304804793338	60.526555055549
0	88809	1522770.87665493835	93.913245407393
0	88814	1522807.219292890413	36.342637952063
0	88819	1522819.829015029809	12.609722139396
0	88826	1522922.570142465045	11.971827361282
0	88833	1523034.756128591812	21.944668023548
0	88840	1523067.718660389188	18.16171832385
0	88851	1523288.767473546228	208.7196731365
0	88858	1523305.097460975901	16.329987429673
0	88863	1523334.124816311736	29.027355335835
0	88868	1523386.382627848714	52.257811536978
0	88875	1523563.563804440765	0.343875701487
0	88882	1523666.698896743811	7.640793559783
0	88889	1523697.114284585026	12.149584321128
0	88898	1523924.876233791925	62.974481331983
0	88903	1523933.906036343854	9.029802551929
0	89051	1527963.502097990403	8.038858403601
0	89056	1527994.57028479559	31.068186805187
0	89061	1528027.329974961305	32.759690165715
0	89066	1528038.375297833925	11.04532287262
0	89071	1528054.844078035657	16.468780201732
0	89076	1528063.528142178587	8.68406414293
0	89081	1528150.569022938082	87.040880759495
0	89086	1528152.911460531079	2.342437592997
0	89091	1528155.475455740293	2.563995209214
0	89096	1528168.149475245927	12.674019505634
0	89101	1528192.904466178334	24.754990932407
0	89106	1528263.721331577829	70.816865399495
0	89111	1528334.437595733583	70.716264155754
0	89116	1528388.221317453636	53.783721720053
0	89121	1528408.899073360386	20.67775590675
0	89126	1528429.100163134686	20.2010897743
0	89131	1528433.554143662881	4.453980528195
0	89138	1528511.962572065077	3.270157937847
0	89145	1528666.201374719437	10.701322083014
0	89152	1528749.871719064515	7.138540242534
0	89159	1528760.289454911773	1.697019705426
0	89201	1529772.602651346411	52.619346997703
0	89208	1529849.790748181758	77.188096835347
0	89213	1529850.841798632909	1.051050451151
0	89220	1529904.44221563519	53.600417002281
0	89225	1529948.873053413645	44.430837778455
0	89232	1529973.079947219207	24.206893805562
0	89239	1530037.015429048996	63.935481829789
0	89246	1530066.305388504492	29.289959455496
0	89253	1530133.878090498017	67.572701993525
0	89258	1530151.033583160785	17.155492662768
0	89263	1530201.978231155845	50.94464799506
0	89268	1530267.78834159164	65.810110435795
0	89273	1530295.705185443355	27.916843851715
0	89278	1530307.17842447805	11.473239034695
0	89286	1530378.5614931995	71.38306872145
0	89389	1532318.460766626072	33.8885667148
0	89394	1532397.458652905288	78.997886279216
0	89399	1532432.327706954941	34.869054049653
0	89408	1532478.817589496136	46.489882541195
0	89411	1532480.877985717647	2.060396221511
0	89420	1532497.874104659044	16.996118941397
0	89426	1532527.041783497732	29.167678838688
0	89431	1532562.416979704422	35.37519620669
0	89434	1532563.041455800037	0.624476095615
0	89443	1532696.7680157725	133.72655997246
0	89448	1532732.590034027961	35.822018255461
0	89453	1532808.214710034921	75.62467600696
0	89458	1532880.147517628298	71.932807593377
0	89463	1532956.232617015333	76.085099387035
0	89468	1532984.966371944254	28.733754928921
0	89473	1533037.007601168184	52.04122922393
0	89478	1533142.340419383059	105.33281821488
0	89489	1533298.311195398476	155.97077601542
0	89494	1533309.917322901305	11.606127502829
0	89497	1533310.236020594405	0.3186976931
0	89504	1533376.432740776588	66.196720182183
0	89509	1533388.223703761125	11.790962984537
0	89514	1533431.425634696134	43.201930935009
0	89519	1533476.371500391371	44.945865695237
0	89524	1533492.090652763785	15.719152372414
0	89529	1533504.146352044893	12.055699281108
0	89534	1533522.672533178799	18.526181133906
0	89541	1533582.16391720638	33.329632423625
0	89550	1533698.342806339484	45.429607802371
0	89555	1533710.21827787354	11.875471534056
0	89562	1533726.084181429287	10.236171277784
0	89807	1539889.053222618155	52.162758110908
0	89814	1539966.450603466948	77.397380848793
0	89825	1540067.328903387169	100.87829992022
0	89830	1540116.894513552347	49.565610165178
0	89835	1540146.126220564971	29.231707012624
0	89840	1540157.237881687438	11.111661122467
0	89846	1540266.312712124563	109.07483043713
0	89949	1543591.07870891071	0.412883577531
0	89956	1543661.351702238964	70.272993328254
0	89961	1543668.620012359543	7.268310120579
0	89968	1543731.219959646855	62.599947287312
0	89973	1543760.684957531792	29.464997884937
0	89978	1543786.034527901183	25.349570369391
0	89983	1543804.494050993676	18.459523092493
0	89988	1543809.203882559732	4.709831566056
0	89993	1543816.145513747071	6.941631187339
0	89998	1543824.020176582464	7.874662835393
0	90003	1543828.715932465127	4.695755882663
0	90008	1543861.020011534035	32.304079068908
0	90015	1543931.732794224597	70.712782690562
0	90024	1543996.080331286285	64.347537061688
0	90031	1544032.810885433306	36.730554147021
0	90036	1544073.638318751193	40.827433317887
0	90043	1544140.399105928029	66.760787176836
0	90050	1544201.845258022552	61.446152094523
0	90055	1544217.56330400063	15.718045978078
0	90060	1544231.77386539366	14.21056139303
0	90069	1544354.019309843798	122.24544445014
0	90074	1544359.226680265594	5.207370421796
0	90079	1544412.386740320857	53.160060055263
0	90084	1544460.836302363522	48.449562042665
0	90087	1544461.088235371471	0.251933007949
0	90094	1544496.570102717775	35.481867346304
0	90099	1544518.546245175753	21.976142457978
0	90106	1544575.558260769379	57.012015593626
0	90113	1544591.453262575654	15.895001806275
0	90120	1544644.286238973011	52.832976397357
0	90125	1544665.545668288914	21.259429315903
0	90130	1544742.98361758967	77.437949300756
0	90135	1544754.40554773703	11.42193014736
0	90140	1544764.7337267466	10.32817900957
0	90145	1544775.121842751066	10.388116004466
0	90150	1544817.879002563413	42.757159812347
0	90155	1544877.005909619966	59.126907056553
0	90158	1544877.25102184309	0.245112223124
0	90165	1544903.194002841833	25.942980998743
0	90170	1544909.923228430401	6.729225588568
0	90177	1544985.194751744002	75.271523313601
0	90186	1545139.2602815365	154.0655297925
0	90191	1545148.504047183499	9.243765646999
0	90196	1545156.801458192744	8.297411009245
0	90203	1545279.024215224911	80.746460443026
0	90210	1545612.531163342619	48.426484456565
0	90217	1545915.578828430807	12.82204292983
0	90226	1545944.936352095248	24.411553956736
0	90231	1545950.119259356974	5.182907261726
0	90238	1546118.763877544438	20.55639464186
0	90245	1546163.457752005989	14.440996523041
0	90252	1546421.349489268022	118.10082484008
0	90261	1546456.458344912574	19.324108645813
0	90266	1546478.990995979228	22.532651066654
0	90275	1546616.377201978405	108.89671713685
0	90280	1546623.716931428775	7.33972945037
0	90287	1546861.943077079738	32.002078927768
0	90298	1546905.927440608433	39.073446425013
0	90304	1546938.570915062244	32.643474453811
0	90328	1547479.85048922803	92.018349962799
0	90333	1547504.28088871893	24.4303994909
0	90340	1547512.673843953868	8.392955234938
0	90345	1547513.351191323449	0.677347369581
0	90352	1547583.889906431619	46.644230519066
0	90359	1547781.070738250237	22.929215713663
0	90366	1547959.94287555729	2.787050079307
0	90373	1548052.143817480003	27.600785376905
0	90380	1548110.682135112098	2.212110304892
0	90387	1548279.621577809264	27.707691381374
0	90394	1548362.772105739774	48.656232799101
0	90403	1548459.526147763665	37.111715771088
0	90408	1548594.246126965753	134.71997920209
0	90417	1548796.711261578426	89.596999270503
0	90422	1548854.801572196766	58.09031061834
0	90429	1549031.358020583154	67.800752892475
0	90440	1549430.370609706706	176.19010222426
0	90445	1549436.829396308268	6.458786601562
0	90450	1549503.870585097443	67.041188789175
0	90459	1549559.622105421657	5.186808768703
0	90464	1549606.325801272765	46.703695851108
0	90471	1549712.160316599027	65.864995072325
0	90480	1550030.890138695887	47.799203843121
0	90485	1550055.740379774999	24.850241079112
0	90496	1550271.736478824045	157.29012377994
0	90501	1550297.545789534188	25.809310710143
0	90506	1550307.921592549148	10.37580301496
0	90515	1550531.462432847554	114.11226670842
0	90520	1550563.168532180302	31.706099332748
0	90527	1550663.879869018927	10.461530426708
0	90534	1550863.999844441212	12.960015643455
0	90541	1550892.162926116551	8.809063977879
0	90548	1550959.64912862536	4.879136737264
0	90555	1551235.732962224319	47.24259284585
0	90562	1551613.745940856204	47.181814902084
0	90569	1551778.77373249336	17.265985924674
0	90576	1551817.869655629147	6.637300557989
0	90583	1551851.050374908317	19.506750610894
0	90590	1551924.544906030925	27.377600542658
0	90597	1551929.711731595499	1.872719618856
0	90604	1552018.382123930451	1.051019272135
0	90611	1552104.430835859172	19.94991656142
0	90618	1552139.065173658042	8.292501107876
0	90629	1552548.742315272016	126.57300859301
0	90636	1552584.642857704474	35.900542432458
0	90641	1552595.408633145861	10.765775441387
0	90646	1552634.455402086124	39.046768940263
0	90653	1552755.544213643253	98.862420270255
0	90660	1552769.9767729204	1.964714621318
0	90667	1552920.735229671416	35.112899411597
0	90674	1553305.936765762415	184.17348552526
0	90681	1553429.575973832379	3.390537766151
0	90688	1553609.585756554485	67.340583080874
0	90695	1553942.707813303584	96.292850103153
0	90702	1554019.593521043352	23.299908404027
0	90709	1554271.10361230054	47.108641448131
0	90716	1554432.585883099432	8.753349904997
0	90723	1554682.824546395015	28.483020404346
0	90730	1554707.794141382917	0.44944271963
0	90739	1554872.918316201598	75.619044250731
0	90744	1554919.850133379582	46.931817177984
0	90751	1555004.695702133066	5.297939065752
0	90758	1555247.531764512	1.191988667155
0	91091	1561331.432010092851	11.481226064636
0	91097	1561424.416960402519	92.984950309668
0	91100	1561426.733179668069	2.31621926555
0	91107	1561483.474694183585	56.741514515516
0	91112	1561617.528793705531	134.05409952195
0	91119	1561649.487352151792	31.958558446261
0	91124	1561656.93780818703	7.450456035238
0	91130	1561719.978329086283	63.040520899253
0	91135	1561733.412261138084	13.433932051801
0	91140	1561764.463873916678	31.051612778594
0	91149	1561975.477263230792	211.01338931411
0	91154	1561986.969035041051	11.491771810259
0	91159	1562002.563952111093	15.594917070042
0	91162	1562002.802577823944	0.238625712851
0	91169	1562024.853890317351	22.051312493407
0	91174	1562025.194173095768	0.340282778417
0	91179	1562032.103033125815	6.908860030047
0	91184	1562096.485006771557	64.381973645742
0	91189	1562107.875834066503	11.390827294946
0	91196	1562172.500874022307	64.625039955804
0	91201	1562190.271590280344	17.770716258037
0	91208	1562271.206760625879	80.935170345535
0	91213	1562317.891583837677	46.684823211798
0	91218	1562402.63383559642	84.742251758743
0	91223	1562409.78584976469	7.15201416827
0	91228	1562467.914118591985	58.128268827295
0	91233	1562478.732010696224	10.817892104239
0	91240	1562568.189795598042	4.39310346388
0	91247	1562676.029853457929	0.15992879361
0	91258	1562882.775039634478	171.65251427473
0	91263	1562914.815482194299	32.040442559821
0	91270	1562990.896626749057	76.081144554758
0	91275	1563016.88949599182	25.992869242763
0	91286	1563365.823045588287	63.020451141527
0	91291	1563416.624476572517	50.80143098423
0	91296	1563442.022268960009	25.397792387492
0	91305	1563723.353572917987	18.19600072367
0	91310	1563792.283256810118	68.929683892131
0	91317	1563905.999933684471	93.356925370577
0	91324	1563972.283908392696	33.018679236609
0	91331	1564112.497298298536	51.221126799135
0	91338	1564117.187188798937	0.711182739883
0	91345	1564354.915529455936	13.56730791703
0	91403	1566110.925043738923	5.656005307688
0	91408	1566121.34795314735	10.422909408427
0	91413	1566124.716164279227	3.368211131877
0	91420	1566202.127110869751	77.410946590524
0	91425	1566253.471901767292	51.344790897541
0	91430	1566308.183474571211	54.711572803919
0	91435	1566374.844916534661	66.66144196345
0	91448	1566614.149362260753	239.30444572609
0	91455	1566633.625524007331	19.476161746578
0	91460	1566732.081951524584	98.456427517253
0	91465	1566758.917427472791	26.835475948207
0	91470	1566781.207876293759	22.290448820968
0	91475	1566819.811100755906	38.603224462147
0	91480	1566851.589802434689	31.778701678783
0	91487	1566901.215188643752	49.625386209063
0	91492	1566950.934225212941	49.719036569189
0	91497	1566960.563742831651	9.62951761871
0	91502	1567006.844814519136	46.281071687485
0	91507	1567013.363510743336	6.5186962242
0	91514	1567061.540790541593	48.177279798257
0	91521	1567086.095976574991	24.555186033398
0	91526	1567096.281751671942	10.185775096951
0	91531	1567097.331644442765	1.049892770823
0	91536	1567187.882825948244	90.551181505479
0	91541	1567208.819498076355	20.936672128111
0	91547	1567358.410258136014	149.59076005966
0	91600	1568405.873368474497	142.39233897381
0	91605	1568429.406494511351	23.533126036854
0	91608	1568431.519786756463	2.113292245112
0	91615	1568447.045550771914	15.525764015451
0	91620	1568465.160805771301	18.115254999387
0	91625	1568485.265646826846	20.104841055545
0	91630	1568570.134814940201	84.869168113355
0	91637	1568706.178483047917	8.752601450948
0	91646	1568875.748789985755	77.447975322099
0	91651	1568958.088330003684	82.339540017929
0	91658	1569091.759696599678	20.795562750542
0	91667	1569166.981390781998	66.097698723364
0	91674	1569197.483207458382	30.501816676384
0	91679	1569242.291487673536	44.808280215154
0	91686	1569305.005011421954	7.732702767738
0	91693	1569312.10103130456	2.869181459772
0	91700	1569370.386657857539	51.390730962116
0	91707	1569565.056398626906	2.895495424701
0	91714	1569586.163009104111	3.848666104251
0	91721	1569653.109212839396	22.898901624393
0	91732	1569828.268441978891	79.296503498109
0	91737	1569974.782158209398	146.51371623051
0	91742	1570014.233835389176	39.451677179778
0	91749	1570132.642221329293	47.482661321986
0	91756	1570284.402071831077	4.956760042943
0	91765	1570405.908440725536	89.839268894792
0	91770	1570423.625538301364	17.717097575828
0	91777	1570546.601419826115	67.870643055671
0	91788	1570703.718663855301	97.752656262847
0	91793	1570749.84686536272	46.128201507419
0	91800	1570811.810993761481	61.964128398761
0	91807	1570865.399678286173	53.588684524692
0	91812	1570911.354785162938	45.955106876765
0	91819	1571056.408180880673	51.286229815066
0	91828	1571140.097215719719	67.069767390524
0	91833	1571145.931912454096	5.834696734377
0	91840	1571200.449797360529	43.372151465757
0	91851	1571281.54678982454	40.121348243936
0	91856	1571307.316901075829	25.770111251289
0	91861	1571340.846003778547	33.529102702718
0	91868	1571500.096249143957	86.075283779155
0	91877	1571697.223252614812	2.444114828901
0	91882	1571716.380745061305	19.157492446493
0	91889	1571943.956645855412	15.312513741239
0	91898	1572049.948407840201	59.407593601035
0	91903	1572103.932425104036	53.984017263835
0	91910	1572229.091107484031	18.84086177661
0	91917	1572362.154799340539	45.40359304994
0	91924	1572393.873885956603	5.641926118799
0	91931	1572515.061642448618	20.910571742497
0	91938	1572574.667162367137	2.666259098849
0	91945	1572676.802052279725	39.94924310319
0	91952	1572717.743357843908	15.396149253824
0	92233	1579052.911071734146	5.272592591598
0	92242	1579060.262249903114	7.351178168968
0	92248	1579065.374858131917	5.112608228803
0	92256	1579146.618948241816	81.244090109899
0	92366	1581170.238421028968	98.001423108801
0	92369	1581172.135454975798	1.89703394683
0	92376	1581194.80329919127	22.667844215472
0	92383	1581265.045353790805	70.242054599535
0	92390	1581316.71221037542	51.666856584615
0	92395	1581333.805325089778	17.093114714358
0	92402	1581392.775939695908	58.97061460613
0	92407	1581408.915804113812	16.139864417904
0	92416	1581463.149983527063	54.234179413251
0	92421	1581469.614549811011	6.464566283948
0	92426	1581571.740762026706	102.12621221569
0	92431	1581581.731823036136	9.99106100943
0	92436	1581607.565918517859	25.834095481723
0	92441	1581609.976931535962	2.411013018103
0	92448	1581669.760926916353	59.783995380391
0	92453	1581689.336506217981	19.575579301628
0	92458	1581692.861135355585	3.524629137604
0	92467	1581734.91442975048	42.053294394895
0	92472	1581812.975024032274	78.060594281794
0	92481	1581915.674501955726	102.69947792345
0	92486	1581941.052772437525	25.378270481799
0	92495	1582005.857456437902	64.804684000377
0	92502	1582079.318560124736	73.461103686834
0	92507	1582088.51882407699	9.200263952254
0	92512	1582112.909301377862	24.390477300872
0	92519	1582190.564954487118	77.655653109256
0	92528	1582317.509696888108	126.94474240099
0	92533	1582352.962902447787	35.453205559679
0	92538	1582406.607010260044	53.644107812257
0	92543	1582415.659260589422	9.052250329378
0	92548	1582434.426371682845	18.767111093423
0	92553	1582456.786577137202	22.360205454357
0	92558	1582510.430963574078	53.644386436876
0	92563	1582531.311773428835	20.880809854757
0	92574	1582556.057609171999	24.745835743164
0	92581	1582617.904003034903	61.846393862904
0	92586	1582684.983396520835	67.079393485932
0	92591	1582746.649339756807	61.665943235972
0	92596	1582773.838345482156	27.189005725349
0	92601	1582796.066891827148	22.228546344992
0	92606	1582805.400125681719	9.333233854571
0	92611	1582881.332017322593	75.931891640874
0	92616	1582900.074066525324	18.742049202731
0	92621	1582955.231391320676	55.157324795352
0	92628	1582974.605595312839	19.374203992163
0	92633	1582974.958757851487	0.353162538648
0	92638	1582986.243608023662	11.284850172175
0	92643	1583052.933688676427	66.690080652765
0	92648	1583060.824260635533	7.890571959106
0	92655	1583275.359568688729	62.903615993142
0	92662	1583364.932760197437	3.328186469816
0	92671	1583491.080455063641	57.339983823225
0	92676	1583544.226286090249	53.145831026608
0	92684	1583665.662079868003	39.307696285386
0	92752	1586035.406398664941	2.588584559083
0	92757	1586095.705789865306	60.299391200365
0	92762	1586114.282026845688	18.576236980382
0	92771	1586190.546617309032	76.264590463344
0	92774	1586191.569495561921	1.022878252889
0	92783	1586268.669501209897	77.100005647976
0	92788	1586280.442925717636	11.773424507739
0	92793	1586284.103266713002	3.660340995366
0	92798	1586321.518569721958	37.415303008956
0	92803	1586337.758124799754	16.239555077796
0	92808	1586376.603583805727	38.845459005973
0	92813	1586481.565121657579	104.96153785185
0	92822	1586607.210316674793	2.830093270617
0	92827	1586663.909823918461	56.699507243668
0	92834	1586733.803001274322	34.566726752861
0	92841	1587052.902408221334	21.223373381305
0	92850	1587179.646345008978	45.966705861176
0	92855	1587180.543622608138	0.89727759916
0	92862	1587321.207267749152	26.963507603234
0	92869	1587377.518156277253	7.89986227511
0	92876	1587444.644127816213	3.51949353534
0	92885	1587519.951786485859	62.38869590458
0	92890	1587523.388483401354	3.436696915495
0	92899	1587643.106277529314	102.91737420892
0	92904	1587649.299028734971	6.192751205657
0	92913	1587835.108329568134	102.24506248453
0	92920	1587943.664184555392	108.55585498726
0	92925	1587944.314510238523	0.650325683131
0	92932	1588173.961920480631	14.884037256565
0	92939	1588333.379185838875	6.239654401154
0	92946	1588385.406683010067	37.085356609754
0	92955	1588521.715121340601	34.029873849105
0	92960	1588598.779667565442	77.064546224841
0	92967	1588886.865551410219	21.165364602281
0	92974	1588962.211772658482	2.499497431238
0	92981	1589012.712330548282	2.61795451441
0	92988	1589077.455547461194	43.719117389327
0	92999	1589132.754287253602	25.137650958475
0	93006	1589149.868531696613	17.114244443011
0	93011	1589307.401729791409	157.5331980948
0	93016	1589311.420561525206	4.018831733797
0	93025	1589447.657050262174	63.584949827546
0	93030	1589454.495976293164	6.83892603099
0	93039	1589717.190194660861	63.024933856894
0	93044	1589747.460148450127	30.269953789266
0	93051	1589882.911567361924	5.869292323115
0	93058	1589950.945015884495	2.65793728336
0	93067	1590083.682407118754	31.796264778007
0	93072	1590136.934474947964	53.25206782921
0	93079	1590222.926370861381	6.120639176811
0	93086	1590344.415792898072	24.886187364337
0	93098	1590595.910118793016	2.836781082645
0	93105	1590741.493948168079	60.531229066592
0	93112	1590788.139275303223	0.495618760784
0	93119	1590902.712522696771	9.316068947964
0	93126	1590967.1325426969	47.726668756538
0	93137	1591207.133834518937	8.587268821051
0	93146	1591688.093122161853	78.598228996343
0	93151	1591762.627695249987	74.534573088134
0	93158	1591864.574683755504	1.655560782675
0	93169	1591971.320133856621	46.380958655828
0	93174	1592048.933772689541	77.61363883292
0	93179	1592057.661209976317	8.727437286776
0	93188	1592204.494184484999	60.136897379776
0	93193	1592235.208069284452	30.713884799453
0	93200	1592450.565362930334	58.372613517734
0	93207	1592526.880322172406	6.236571848077
0	93218	1592638.317540701238	67.145944674814
0	93225	1592758.253832309939	119.9362916087
0	93230	1592769.756379849619	11.50254753968
0	93235	1592775.696281368851	5.939901519232
0	93242	1592960.538948954215	68.491940813697
0	93249	1592971.175617684159	9.546234575137
0	93256	1593232.466204323495	15.027469664048
0	93263	1593260.214257682196	4.095055346699
0	93270	1593570.193947143415	10.457147562026
0	93277	1593664.120500969794	7.263526483723
0	93284	1593784.270326902961	66.374367280164
0	93293	1593849.385180453075	36.662414079762
0	93298	1593857.215595430878	7.830414977803