version 2
run Simulations-21-20191215-22:53:56-18910
attr configname Simulations
attr datetime 20191215-22:53:56
attr experiment Simulations
attr inifile omnetpp.ini
attr iterationvars "$seed=7, $0=11000"
attr iterationvarsf seed=7,11000-
attr measurement "$seed=7, $0=11000"
attr network WifiCelNetPassiveQueue
attr processid 18910
attr repetition 0
attr replication #0
attr resultdir results/Simulations/omnet
attr runnumber 21
attr seedset 7
itervar seed 7
param **.numJobs 14000
param *.OFFLOAD.deadline exponential(11000s)
param *.source.interArrivalTime exponential(120s)
param *.WIFI.serviceTime exponential(40s)
param *.CELL.serviceTime exponential(400s)
param *.OFFLOAD.switchToWi exponential(1524s)
param *.OFFLOAD.switchToCel exponential(3120s)
param *.LOCAL.serviceTime exponential(5s)
param *.REMOTE.serviceTime exponential(1s)

vector 0 WifiCelNetPassiveQueue.OFFLOAD queueLength:vector ETV
attr interpolationmode sample-hold
attr title "queue length, vector"
vector 1 WifiCelNetPassiveQueue.OFFLOAD storeDeadline:vector ETV
attr interpolationmode none
attr title "deadline, vector"
attr unit s
vector 2 WifiCelNetPassiveQueue.LOCAL serviceTime:vector ETV
attr interpolationmode none
attr title "wifi Service, vector"
attr unit s
vector 3 WifiCelNetPassiveQueue.LOCAL responseTime:vector ETV
attr interpolationmode none
attr title "Response Time, vector"
attr unit s
vector 4 WifiCelNetPassiveQueue.sink lifeTime:vector ETV
attr interpolationmode none
attr title "lifetime of arrived jobs, vector"
attr unit s
vector 5 WifiCelNetPassiveQueue.OFFLOAD storeWifiTime:vector ETV
attr interpolationmode none
attr title "Time in Wifi, vector"
attr unit s
vector 6 WifiCelNetPassiveQueue.CELL serviceTime:vector ETV
attr interpolationmode none
attr title "wifi Service, vector"
attr unit s
vector 7 WifiCelNetPassiveQueue.CELL responseTime:vector ETV
attr interpolationmode none
attr title "Response Time, vector"
attr unit s
vector 8 WifiCelNetPassiveQueue.WIFI serviceTime:vector ETV
attr interpolationmode none
attr title "wifi Service, vector"
attr unit s
vector 9 WifiCelNetPassiveQueue.WIFI responseTime:vector ETV
attr interpolationmode none
attr title "Response Time, vector"
attr unit s
vector 10 WifiCelNetPassiveQueue.REMOTE queueLength:vector ETV
attr interpolationmode sample-hold
attr title "queue length, vector"
vector 11 WifiCelNetPassiveQueue.REMOTE serviceTime:vector ETV
attr interpolationmode none
attr title "wifi Service, vector"
attr unit s
vector 12 WifiCelNetPassiveQueue.REMOTE responseTime:vector ETV
attr interpolationmode none
attr title "Response Time, vector"
attr unit s
vector 13 WifiCelNetPassiveQueue.OFFLOAD storeCelTime:vector ETV
attr interpolationmode none
attr title "Time in Cell, vector"
attr unit s
vector 14 WifiCelNetPassiveQueue.LOCAL queueLength:vector ETV
attr interpolationmode sample-hold
attr title "queue length, vector"
0	87837	1500000.617184275561	18
0	87838	1500028.315055334826	17
0	87843	1500051.25813142093	18
0	87845	1500086.86746332416	19
0	87847	1500089.644320657156	20
0	87849	1500125.828755564987	21
0	87851	1500656.78034409885	22
0	87852	1500714.631326215431	21
0	87857	1500723.792575735176	22
0	87858	1501029.927307397357	21
0	87863	1501030.155963055409	22
0	87865	1501065.286603082397	23
0	87867	1501243.095955422589	24
0	87870	1501439.24840863835	25
0	87872	1501659.114413130824	26
0	87874	1501684.587958453462	27
0	87876	1501758.183004895904	28
0	87877	1501772.599309229091	27
0	87880	1501772.615350015309	26
0	87887	1501794.895676236017	25
0	87892	1501817.414566536063	24
0	87897	1501844.840348632852	23
0	87902	1501884.175453085092	22
0	87907	1501973.32666247869	21
0	87912	1502088.968941991361	20
0	87917	1502095.996605370171	19
0	87923	1502173.90180206868	20
0	87924	1502181.727624102034	19
0	87929	1502218.333996557958	18
0	87934	1502230.455741431704	17
0	87939	1502288.56724951557	16
0	87945	1502333.350738763808	17
0	87946	1502344.923294725526	16
0	87952	1502364.548929507437	17
0	87953	1502368.997360758076	16
0	87958	1502375.837523607769	15
0	87963	1502377.115766328975	14
0	87970	1502451.38484935509	15
0	87971	1502505.562668514835	14
0	87976	1502515.817357019976	13
0	87981	1502519.066363984186	12
0	87986	1502551.646991164815	11
0	87991	1502574.685108539029	10
0	87996	1502589.339082586633	9
0	88001	1502625.803336074792	8
0	88006	1502649.244456414049	7
0	88011	1502651.09899308443	6
0	88016	1502749.60383778787	5
0	88021	1502752.573965470978	4
0	88026	1502781.224712723676	3
0	88032	1502815.665156974311	4
0	88033	1502819.626245368621	3
0	88038	1502870.119137207061	2
0	88043	1502876.74113597171	1
0	88048	1502894.294665421344	0
0	88054	1502959.417272714009	1
0	88056	1503005.251604192173	2
0	88058	1503014.995844349815	3
0	88059	1503050.255669509245	2
0	88064	1503121.520356823367	1
0	88069	1503175.388990551036	0
0	88083	1503559.223192949131	1
0	88084	1504003.303583711455	0
0	88090	1504096.247939708498	1
0	88091	1504172.352239914029	0
0	88097	1504269.799321034344	1
0	88099	1504307.628487452532	2
0	88101	1504409.841632917033	3
0	88103	1504472.546957383563	4
0	88105	1504538.380961454208	5
0	88107	1504568.871819798598	6
0	88109	1504612.711870185124	7
0	88110	1504855.249454693583	6
0	88117	1505238.870889594624	7
0	88119	1505499.200403737153	8
0	88121	1505833.939730424826	9
0	88123	1505921.021796432332	10
0	88125	1505983.033608178837	11
0	88127	1506139.80704278977	12
0	88129	1506259.076646807724	13
0	88133	1506311.74020758526	12
0	88138	1506319.381001145043	11
0	88144	1506354.914821252474	12
0	88145	1506378.360018543724	11
0	88151	1506391.363574215857	12
0	88152	1506394.983267055501	11
0	88157	1506432.867368080134	10
0	88162	1506485.157001589143	9
0	88167	1506521.0230406478	8
0	88172	1506538.454462413617	7
0	88177	1506550.166110997925	6
0	88183	1506580.287018211806	7
0	88184	1506590.030838063992	6
0	88189	1506603.958638417277	5
0	88195	1506617.948969977032	6
0	88197	1506632.368113060624	7
0	88198	1506640.188787993288	6
0	88203	1506646.820057949589	5
0	88208	1506722.289182840271	4
0	88213	1506789.07523067723	3
0	88218	1506830.009759798982	2
0	88223	1506840.165242660375	1
0	88229	1506864.796395074592	2
0	88230	1506952.992596975729	1
0	88236	1506964.980675638799	2
0	88237	1506983.564404412254	1
0	88243	1507002.42139048785	2
0	88244	1507006.680948851469	1
0	88249	1507039.145871505261	0
0	88262	1507340.1929488159	1
0	88263	1507353.932096490403	0
0	88276	1507465.756591611659	1
0	88277	1507484.389563662205	0
0	88339	1508109.068502268857	1
0	88340	1508163.654362961028	0
0	88361	1509118.993553315805	1
0	88363	1509143.110128526608	2
0	88365	1509236.31468894217	3
0	88367	1509334.593759439315	4
0	88369	1509367.729728057176	5
0	88371	1509417.136068662371	6
0	88373	1509443.18826109116	7
0	88374	1509521.927742360707	6
0	88380	1509704.310903369644	7
0	88382	1509712.002888997287	8
0	88384	1509750.024947514189	9
0	88386	1509824.289920311411	10
0	88390	1510036.740516509895	11
0	88391	1510147.398995407848	10
0	88396	1510152.008526128357	9
0	88401	1510154.011573835004	8
0	88407	1510222.767736884046	9
0	88409	1510236.129678468631	10
0	88410	1510281.329339900224	9
0	88415	1510284.599497838071	8
0	88420	1510313.67720656659	7
0	88426	1510321.904309585453	8
0	88427	1510323.368872682466	7
0	88433	1510337.763565969819	8
0	88434	1510381.107983662077	7
0	88439	1510423.261945393442	6
0	88445	1510424.55854897957	7
0	88446	1510427.347052776218	6
0	88451	1510456.10971936905	5
0	88457	1510492.981957644924	6
0	88459	1510505.034956960332	7
0	88460	1510548.010052282074	6
0	88465	1510574.12969823049	5
0	88471	1510575.055768713405	6
0	88473	1510649.121883089291	7
0	88474	1510698.606817260705	6
0	88479	1510763.258602985515	5
0	88485	1510773.48303199643	6
0	88486	1510807.542544657709	5
0	88491	1510821.656527697203	4
0	88496	1510879.507483610586	3
0	88502	1510956.663508019204	4
0	88503	1510957.989005849844	3
0	88508	1511035.177102685191	2
0	88513	1511059.822321184174	1
0	88518	1511086.946783476905	0
0	88678	1513605.141531386602	1
0	88679	1513614.490684721841	0
0	88706	1514099.306517587069	1
0	88707	1514122.943373123973	0
0	88755	1514873.770764095282	1
0	88757	1514887.316350256619	2
0	88758	1514911.760113100468	1
0	88761	1514913.820509321979	0
0	88827	1516256.952862065434	1
0	88829	1516270.334131774207	2
0	88830	1516299.105546453959	1
0	88835	1516355.472621245246	0
0	88841	1516378.618971413793	1
0	88843	1516379.575064493092	2
0	88844	1516394.0396580119	1
0	88849	1516409.134905847793	0
0	88869	1516702.737237992588	1
0	88870	1516704.066739626392	0
0	88890	1516865.522209095816	1
0	88891	1516888.412857392642	0
0	88939	1518208.051638129564	1
0	88940	1518249.076564263211	0
0	88981	1519277.330979311558	1
0	88983	1519304.446283006192	2
0	88984	1519322.715881923853	1
0	88989	1519334.549237462285	0
0	89016	1519797.434618972452	1
0	89017	1519834.58515605245	0
0	89037	1519924.071519625473	1
0	89038	1519928.897149966558	0
0	89065	1520332.323689080714	1
0	89066	1520334.076503906134	0
0	89072	1520335.747009863017	1
0	89073	1520384.368056052521	0
0	89107	1520866.883611944194	1
0	89109	1520878.306082020818	2
0	89110	1520879.911965430946	1
0	89115	1520928.832252958373	0
0	89121	1520957.598983064529	1
0	89122	1520972.970105560478	0
0	89135	1521059.905620877768	1
0	89136	1521061.32130209559	0
0	89149	1521133.426974403721	1
0	89151	1521211.034609521612	2
0	89152	1521227.348677064194	1
0	89158	1521293.793188836761	2
0	89159	1521376.019652326539	1
0	89164	1521385.452474554305	0
0	89178	1521701.629820654392	1
0	89179	1521810.280857066917	0
0	89185	1521814.965740738592	1
0	89187	1521884.518231869521	2
0	89189	1521938.193940737927	3
0	89190	1521980.466003091089	2
0	89195	1521993.834650787838	1
0	89201	1522003.130150777361	2
0	89203	1522059.549625848573	3
0	89205	1522092.088261200775	4
0	89207	1522169.925350363264	5
0	89209	1522241.856604155842	6
0	89210	1522365.748760930032	5
0	89216	1522398.344878488566	6
0	89218	1522534.174945839255	7
0	89220	1522539.47388805123	8
0	89221	1522757.397875804366	7
0	89226	1522802.250229170519	6
0	89232	1522804.326658519311	7
0	89233	1522821.107589513195	6
0	89238	1522837.661641886712	7
0	89239	1522870.419681660606	6
0	89245	1523008.343646114657	7
0	89248	1523284.979019501365	8
0	89250	1523396.953667529255	9
0	89252	1523400.837976051599	10
0	89254	1523582.559561134573	11
0	89256	1523594.199006367559	12
0	89258	1523613.075464867528	13
0	89260	1523742.882571403966	14
0	89262	1523783.732615474946	15
0	89263	1523841.585071130354	14
0	89268	1523864.127587008149	13
0	89273	1523936.705517088273	12
0	89278	1523950.226732890125	11
0	89283	1523960.060141158366	10
0	89288	1523988.022106981743	9
0	89294	1524002.346281208276	10
0	89295	1524015.469769074752	9
0	89301	1524052.564360585706	10
0	89303	1524060.915613375338	11
0	89304	1524069.43498011296	10
0	89309	1524082.542691271661	9
0	89314	1524208.326904308422	8
0	89319	1524259.440684774048	7
0	89324	1524261.922650126486	6
0	89329	1524324.300354862093	5
0	89334	1524332.686526787178	4
0	89339	1524376.25714305029	3
0	89344	1524418.952273493686	2
0	89349	1524440.905862889375	1
0	89354	1524484.796914789994	0
0	89367	1524646.223903144387	1
0	89368	1524653.822712597099	0
0	89381	1524710.170521950148	1
0	89383	1524710.891886458965	2
0	89385	1524748.707797827927	3
0	89387	1524770.512728189663	4
0	89388	1524779.20486454581	3
0	89394	1524818.224091465413	4
0	89395	1524836.480934345387	3
0	89400	1524931.957811191126	2
0	89405	1524941.864811920754	1
0	89410	1524955.635379017227	0
0	89416	1524962.381668497867	1
0	89417	1524969.97177533391	0
0	89430	1524997.293829707873	1
0	89431	1525042.111134229829	0
0	89437	1525094.206066914598	1
0	89438	1525112.823916920391	0
0	89486	1525666.403422671379	1
0	89487	1525717.631542946824	0
0	89500	1526048.761867287183	1
0	89501	1526156.269157121142	0
0	89514	1526208.99784647682	1
0	89515	1526243.723914799277	0
0	89549	1526737.477709568859	1
0	89550	1526747.027487023797	0
0	89563	1527000.776094499836	1
0	89564	1527013.620589425606	0
0	89570	1527031.940442513234	1
0	89571	1527056.377749237953	0
0	89591	1527421.585825451388	1
0	89592	1527456.19509916011	0
0	89598	1527647.400395392192	1
0	89599	1527658.057795299053	0
0	89612	1528137.328281710682	1
0	89613	1528154.431608483198	0
0	89619	1528162.220514738416	1
0	89620	1528276.373916517921	0
0	89668	1529295.42988677213	1
0	89669	1529322.613195313854	0
0	89682	1529700.787014665471	1
0	89684	1529768.384967865434	2
0	89686	1529772.06707258943	3
0	89688	1529854.843804657095	4
0	89689	1529861.422907935883	3
0	89694	1529970.456855567139	2
0	89699	1530002.415870013275	1
0	89704	1530034.417948941043	0
0	89717	1530183.562521484737	1
0	89719	1530186.690560085419	2
0	89720	1530254.802063813031	1
0	89726	1530284.620983446852	2
0	89727	1530334.466322996104	1
0	89733	1530404.208895129817	2
0	89734	1530451.107472837221	1
0	89739	1530482.228107252505	0
0	89773	1530970.212730537076	1
0	89774	1530970.252964307359	0
0	89780	1530972.244772645818	1
0	89781	1531043.884913182033	0
0	89802	1531263.491663532238	1
0	89804	1531389.96704614339	2
0	89806	1531396.603377058066	3
0	89807	1531455.572524597182	2
0	89811	1531458.805363570849	3
0	89815	1531604.774061968153	4
0	89817	1531612.679048561621	5
0	89818	1531794.152430471822	4
0	89822	1531816.567721436861	3
0	89827	1531864.962499600022	2
0	89833	1531889.473892283499	3
0	89836	1532068.112526217706	4
0	89838	1532358.735766009474	5
0	89840	1532562.138024686898	6
0	89841	1532671.377739379382	5
0	89847	1532680.328853925274	6
0	89849	1532743.014524786446	7
0	89850	1532847.567841603641	6
0	89855	1532854.026628205203	5
0	89860	1532921.067816994378	4
0	89865	1532921.38300604782	3
0	89871	1532945.22711419381	4
0	89872	1532951.687825285627	3
0	89878	1532973.858344855079	4
0	89879	1532991.411965053246	3
0	89884	1533021.648103152293	2
0	89889	1533069.447306995414	1
0	89894	1533090.909463192656	0
0	89921	1534094.522454606039	1
0	89922	1534105.515019137294	0
0	89928	1534119.110968340712	1
0	89930	1534152.646202578337	2
0	89931	1534176.008238710099	1
0	89936	1534241.882068778612	0
0	89942	1534247.76450057658	1
0	89944	1534280.078533917495	2
0	89945	1534305.468761338553	1
0	89951	1534318.95858084786	2
0	89952	1534329.274137921694	1
0	89958	1534345.385772781497	2
0	89960	1534360.023182993287	3
0	89961	1534407.180930418485	2
0	89966	1534454.423523264335	1
0	89972	1534486.998902352694	2
0	89973	1534519.404730135857	1
0	89978	1534535.979599636681	0
0	90012	1534794.727461050137	1
0	90014	1534861.877275689573	2
0	90016	1534865.030333505979	3
0	90017	1534979.920705908146	2
0	90022	1534999.870622469566	1
0	90028	1535005.828855459441	2
0	90030	1535030.706358783069	3
0	90032	1535031.091713904302	4
0	90033	1535097.002833845847	3
0	90037	1535098.677588022219	4
0	90040	1535110.014238970228	3
0	90046	1535125.067220905316	4
0	90047	1535145.914781402686	3
0	90052	1535156.680556844073	2
0	90057	1535195.727325784336	1
0	90063	1535226.56998522515	2
0	90064	1535232.837414093031	1
0	90069	1535272.040838079943	0
0	90096	1536191.188014144952	1
0	90097	1536201.504570607746	0
0	90111	1536507.876033657271	1
0	90113	1536577.775758869352	2
0	90115	1536777.613321211378	3
0	90117	1536791.515801768899	4
0	90119	1536817.775851483891	5
0	90121	1536870.779024156509	6
0	90123	1537035.40140115952	7
0	90125	1537036.74972931841	8
0	90127	1537061.74076376013	9
0	90129	1537238.848220434857	10
0	90130	1537254.36233124872	9
0	90135	1537307.341721906238	8
0	90141	1537379.643671968809	9
0	90143	1537383.219637970273	10
0	90145	1537827.880312613819	11
0	90147	1538018.97523734023	12
0	90149	1538135.936362096744	13
0	90150	1538183.765004713137	12
0	90152	1538192.332926075122	11
0	90159	1538206.585673355114	10
0	90165	1538279.170256994631	11
0	90166	1538503.311988472224	10
0	90171	1538539.245386951846	9
0	90176	1538771.508240344169	10
0	90178	1538855.996779129626	11
0	90180	1538869.684165483682	12
0	90181	1538881.637603962029	11
0	90187	1538898.256592146824	12
0	90189	1538904.076793414734	13
0	90191	1539045.11694974493	14
0	90193	1539112.852411829282	15
0	90194	1539228.921908406208	14
0	90200	1539351.637608878306	15
0	90202	1539361.338045637258	16
0	90203	1539471.212556630431	15
0	90207	1539530.845371667041	14
0	90213	1539579.371467853695	15
0	90215	1539649.270509660731	16
0	90217	1539664.074885947399	17
0	90219	1539699.960672266363	18
0	90221	1539707.088622254023	19
0	90223	1539780.364117350458	20
0	90225	1539806.741389416715	21
0	90227	1539960.152863598873	22
0	90230	1540097.370936344809	23
0	90232	1540116.033786177633	24
0	90234	1540137.073714175694	25
0	90236	1540315.536827279309	26
0	90237	1540324.64359108934	25
0	90242	1540331.855972459121	24
0	90247	1540359.362929462001	23
0	90253	1540418.329847289411	24
0	90254	1540452.227147994316	23
0	90259	1540528.143233085859	22
0	90265	1540562.211837217532	21
0	90270	1540571.046989722125	20
0	90275	1540592.612703403741	19
0	90282	1540615.069147758812	20
0	90284	1540690.044230319777	21
0	90286	1540721.445309893547	22
0	90287	1540748.797936003269	21
0	90292	1540766.906535564587	20
0	90297	1540768.465884401713	19
0	90302	1540807.441177802951	18
0	90307	1540815.430669519278	17
0	90312	1540828.250430921463	16
0	90317	1540832.196800736719	15
0	90322	1540844.916349757621	14
0	90327	1540853.215059342493	13
0	90332	1540859.135789269876	12
0	90338	1540883.632725243985	13
0	90339	1540898.475766209354	12
0	90344	1540913.485407547627	11
0	90349	1540919.880555017618	10
0	90354	1540925.330749981954	9
0	90359	1540927.654571435689	8
0	90364	1540933.882726556669	7
0	90370	1540970.065588350834	8
0	90371	1541065.872652518093	7
0	90377	1541116.804924945036	8
0	90379	1541123.280042154232	9
0	90380	1541125.98420712617	8
0	90385	1541234.609748911199	7
0	90389	1541234.892074059268	8
0	90393	1541246.097049807612	9
0	90394	1541250.382141254453	8
0	90399	1541301.34732583992	7
0	90404	1541381.436690989663	6
0	90409	1541397.55080605426	5
0	90414	1541421.636312932226	4
0	90419	1541426.781651803098	3
0	90424	1541436.527340844504	2
0	90430	1541474.391618942862	3
0	90431	1541490.727059072323	2
0	90434	1541490.972400272922	1
0	90441	1541503.382270748919	0
0	90567	1545088.466577087425	1
0	90569	1545325.453050517392	2
0	90571	1545347.804418623105	3
0	90572	1545348.290423920268	2
0	90578	1545536.925981320865	3
0	90580	1545630.080819656647	4
0	90581	1545801.291508277153	3
0	90586	1545916.209226379741	2
0	90591	1546072.158397080161	1
0	90596	1546074.544654208673	0
0	90602	1546263.120987598988	1
0	90604	1546288.770824719977	2
0	90605	1546356.698751663758	1
0	90610	1546364.351824823558	2
0	90612	1546557.497745760784	3
0	90614	1546591.670227645621	4
0	90616	1546785.545347513034	5
0	90618	1546923.253841604455	6
0	90620	1546992.20475449665	7
0	90621	1547085.80909765151	6
0	90626	1547188.097672521112	5
0	90633	1547336.433671728181	6
0	90634	1547357.712949776714	5
0	90639	1547377.391459662847	4
0	90644	1547380.622225598767	3
0	90649	1547385.015329062647	2
0	90654	1547396.766195961122	1
0	90659	1547408.607082088667	0
0	90665	1547420.369426301792	1
0	90667	1547570.211127012994	2
0	90668	1547580.2595963634	1
0	90673	1547612.300038923221	0
0	90679	1547650.427229726699	1
0	90680	1547688.381183477979	0
0	90723	1548691.589270426256	1
0	90724	1548699.802257712661	0
0	90744	1549130.712107500522	1
0	90746	1549132.845655720172	2
0	90747	1549200.95559856146	1
0	90751	1549202.540385303617	2
0	90754	1549214.52290647849	1
0	90759	1549216.003358819686	0
0	90772	1549455.627703947036	1
0	90773	1549516.554010567466	0
0	90779	1549527.876233739984	1
0	90781	1549530.022450563781	2
0	90783	1549534.215362412221	3
0	90784	1549549.017282217985	2
0	90789	1549554.257096907657	1
0	90794	1549559.92054262607	0
0	90835	1550138.409287535026	1
0	90836	1550143.435392572185	0
0	90863	1550696.247066755733	1
0	90864	1550711.567843995751	0
0	90870	1550726.466754924666	1
0	90871	1550778.661369831136	0
0	90877	1550784.895240164401	1
0	90878	1550881.658543253336	0
0	90891	1551147.135869179065	1
0	90892	1551179.461588856941	0
0	90926	1551635.528670168643	1
0	90927	1551670.573479472558	0
0	90961	1552485.889931981232	1
0	90963	1552551.461201020207	2
0	90965	1552582.489679694449	3
0	90966	1552591.418607856102	2
0	90971	1552600.657291432647	1
0	90974	1552600.780507656993	0
0	90982	1552637.952782280532	1
0	90983	1552647.337124600358	0
0	91010	1553229.215976782934	1
0	91012	1553238.708841556298	2
0	91013	1553256.799816864808	1
0	91018	1553265.046971437927	0
0	91031	1553683.512749115147	1
0	91032	1553688.363007145903	0
0	91045	1553990.116894277371	1
0	91046	1553999.302781557486	0
0	91087	1554447.99763217751	1
0	91088	1554449.944342332662	0
0	91129	1554911.30119667327	1
0	91130	1554940.159751152299	0
0	91164	1555803.252211971895	1
0	91165	1555867.484811395593	0
0	91178	1556270.36855481823	1
0	91179	1556322.885795207409	0
0	91192	1556413.228329209473	1
0	91193	1556429.133223827099	0
0	91206	1556707.379726716984	1
0	91207	1556725.157879501185	0
0	91248	1557342.323273806199	1
0	91249	1557361.478282242832	0
0	91263	1557501.991598327661	1
0	91264	1557554.528930595171	0
0	91270	1557821.206206030588	1
0	91271	1557834.646551276138	0
0	91277	1557853.232263052757	1
0	91279	1557856.529928610699	2
0	91282	1558155.782368849658	3
0	91283	1558281.179025426596	2
0	91288	1558288.176415340799	1
0	91293	1558290.6205301697	0
0	91313	1558568.445913924405	1
0	91314	1558574.907348249349	0
0	91327	1558778.311023416572	1
0	91328	1558782.169014921902	0
0	91341	1558848.864940600269	1
0	91343	1558865.790718956665	2
0	91344	1558870.139979035841	1
0	91349	1558891.050550778338	0
0	91355	1558902.850196826294	1
0	91357	1558910.84897412284	2
0	91358	1558912.667852747754	1
0	91364	1558922.310271060343	2
0	91365	1558952.617095850944	1
0	91370	1558968.013245104768	0
0	91376	1559023.554826596916	1
0	91377	1559122.66318584204	0
0	91383	1559153.307579639259	1
0	91384	1559156.608138400799	0
0	91397	1559207.918829785072	1
0	91399	1559261.660598846307	2
0	91400	1559280.978297309878	1
0	91406	1559283.95856430637	2
0	91408	1559308.710173456472	3
0	91409	1559321.024904415929	2
0	91414	1559420.777151066951	1
0	91419	1559446.17312219979	0
0	91425	1559459.582797188769	1
0	91426	1559465.945162368813	0
0	91509	1561215.97404109262	1
0	91511	1561224.947484086913	2
0	91513	1561227.39743948727	3
0	91514	1561235.987705745749	2
0	91519	1561252.922211258759	1
0	91525	1561332.690724548092	2
0	91526	1561344.420582990868	1
0	91531	1561355.168581726875	0
0	91544	1561434.295401027862	1
0	91545	1561444.687135869243	0
0	91551	1561476.850533511691	1
0	91552	1561492.046841259428	0
0	91558	1561535.226425933422	1
0	91559	1561672.759971530362	0
0	91572	1562066.450614456525	1
0	91574	1562069.280796545956	2
0	91576	1562085.214997359755	3
0	91578	1562088.873283595848	4
0	91580	1562126.143517968887	5
0	91581	1562135.67416989404	4
0	91584	1562140.317025161725	3
0	91591	1562276.218917563895	2
0	91596	1562313.577072376927	1
0	91601	1562397.656617509118	0
0	91621	1562618.831526615446	1
0	91623	1562646.879454173098	2
0	91624	1562656.416803825154	1
0	91630	1562660.962792574585	2
0	91631	1562766.610172015602	1
0	91636	1562788.914110432452	0
0	91663	1563287.112574774482	1
0	91664	1563308.308846744632	0
0	91684	1563755.437505285379	1
0	91686	1563771.058095292311	2
0	91687	1563797.031056243608	1
0	91692	1563816.856195657485	0
0	91705	1564026.279603640829	1
0	91706	1564026.973982891739	0
0	91719	1564096.985446849018	1
0	91721	1564106.195278022667	2
0	91722	1564124.038303298755	1
0	91727	1564128.101203344329	0
0	91768	1564451.390634493076	1
0	91770	1564466.728459179485	2
0	91772	1564488.098596550138	3
0	91773	1564491.061901001635	2
0	91778	1564535.482845028039	1
0	91783	1564541.120336731557	0
0	91810	1564868.986041377993	1
0	91811	1564897.070935245471	0
0	91824	1565338.196179426106	1
0	91825	1565375.613711671547	0
0	91880	1566388.325619984635	1
0	91882	1566419.928748915093	2
0	91883	1566421.432777362406	1
0	91889	1566430.165356491066	2
0	91890	1566447.458606623504	1
0	91895	1566448.460196883244	0
0	91909	1566826.732563114597	1
0	91911	1567120.736832440999	2
0	91913	1567477.263764758128	3
0	91915	1567545.267297404545	4
0	91916	1567642.421167819153	3
0	91920	1567998.931167940939	2
0	91926	1568063.042419315532	3
0	91929	1568150.787132694802	4
0	91931	1568297.514670434589	5
0	91933	1568474.42651425298	6
0	91934	1568515.599733787086	5
0	91940	1568527.197455512419	6
0	91941	1568531.73959820499	5
0	91946	1568534.547412735448	4
0	91951	1568548.881106230294	3
0	91956	1568587.188794243956	2
0	91959	1568588.080012681651	1
0	91966	1568598.071073691081	0
0	91972	1568613.70003599844	1
0	91974	1568620.933075052748	2
0	91975	1568679.158188322944	1
0	91980	1568705.084561790907	0
0	91993	1568803.691192990297	1
0	91994	1568808.779104013869	0
0	92014	1569181.424807225599	1
0	92015	1569197.789817385548	0
0	92028	1569308.564662821967	1
0	92029	1569321.237166864371	0
0	92053	1569475.02896352492	1
0	92055	1569483.25820643043	2
0	92056	1569531.493779838197	1
0	92061	1569703.383269800622	2
0	92063	1569864.315593237392	3
0	92065	1569891.472344225525	4
0	92067	1569947.773677505794	5
0	92069	1570014.854293868865	6
0	92071	1570175.787453179494	7
0	92073	1570238.429882743766	8
0	92075	1570312.667389973257	9
0	92077	1570326.513168506186	10
0	92078	1570463.03185861744	9
0	92083	1570515.852280585467	10
0	92085	1570561.8424203122	11
0	92087	1570692.688949923619	12
0	92089	1570705.556313900279	13
0	92090	1570713.95533928392	12
0	92094	1570741.337694519752	11
0	92099	1570842.794829313977	10
0	92105	1570899.889686935359	11
0	92108	1570956.115834543551	12
0	92110	1571010.716318887455	13
0	92112	1571068.838930863943	14
0	92113	1571176.453960688789	13
0	92118	1571176.807123227437	12
0	92123	1571188.091973399612	11
0	92128	1571254.782054052377	10
0	92133	1571262.672626011483	9
0	92138	1571312.388833022161	8
0	92144	1571323.88726892587	9
0	92145	1571359.270132218486	8
0	92150	1571368.032746482675	7
0	92156	1571396.023166438665	8
0	92157	1571425.3727303059	7
0	92162	1571478.518561332508	6
0	92167	1571507.171461044711	5
0	92173	1571547.87656423731	6
0	92174	1571555.250694716058	5
0	92180	1571567.850489862527	6
0	92181	1571633.384265057338	5
0	92186	1571665.497000025022	4
0	92191	1571692.504753805309	3
0	92196	1571857.239777919823	2
0	92201	1571869.057843123502	1
0	92206	1571877.141348475592	0
0	92233	1572350.53734465073	1
0	92234	1572373.579737606382	0
0	92296	1573320.71936492753	1
0	92298	1573386.143183610007	2
0	92300	1573421.463457133225	3
0	92302	1573426.559528147489	4
0	92304	1573437.540551133587	5
0	92305	1573448.857217308357	4
0	92311	1573494.191304433419	5
0	92312	1573505.356221966293	4
0	92318	1573542.909969666808	5
0	92319	1573544.201680972266	4
0	92325	1573568.921578350425	5
0	92327	1573570.424790407538	6
0	92329	1573578.915070219388	7
0	92330	1573587.746878146326	6
0	92335	1573644.446385389994	5
0	92341	1573672.26790927956	6
0	92342	1573755.260638829516	5
0	92348	1573775.968089538142	6
0	92349	1573789.26084026544	5
0	92354	1573798.299767106771	4
0	92360	1573839.638209682056	5
0	92361	1573842.782213931479	4
0	92367	1573871.501086749848	5
0	92368	1573904.606206291687	4
0	92374	1573946.875620606073	5
0	92375	1573973.694511994771	4
0	92380	1573991.386774893979	3
0	92385	1573994.906268429319	2
0	92390	1574001.128004084694	1
0	92396	1574018.381960884803	2
0	92397	1574022.448206009024	1
0	92403	1574028.458419575688	2
0	92405	1574078.09499035849	3
0	92406	1574099.585658155161	2
0	92411	1574156.591225521619	1
0	92416	1574196.017655190639	0
0	92464	1574931.244594971207	1
0	92465	1574958.14555930966	0
0	92486	1575373.125210877555	1
0	92488	1575396.76726491555	2
0	92490	1575461.285339355114	3
0	92492	1575592.442691523095	4
0	92494	1575593.9561327446	5
0	92496	1575610.41350270307	6
0	92498	1575646.140473937685	7
0	92500	1575882.258413779908	8
0	92501	1575914.944486692844	7
0	92506	1575928.829908311219	6
0	92512	1576354.858008064295	7
0	92514	1576564.679406586684	6
0	92519	1576572.931865198422	5
0	92523	1576574.204865256824	6
0	92527	1576600.985900239716	7
0	92528	1576638.971744664965	6
0	92533	1576662.720012519074	5
0	92538	1576666.808485655383	4
0	92543	1576669.466422938743	3
0	92548	1576676.123430960881	2
0	92554	1576691.795761607514	3
0	92556	1576702.145872588812	4
0	92557	1576724.439619386684	3
0	92562	1576758.680910669739	2
0	92567	1576791.548565343699	1
0	92572	1576816.434752708036	0
0	92593	1577068.48314002296	1
0	92596	1577250.076827222735	2
0	92598	1577251.563683505087	3
0	92600	1577323.330380864783	4
0	92602	1577349.339801056338	5
0	92604	1577377.288007900231	6
0	92605	1577385.507279791793	5
0	92610	1577433.233948548331	4
0	92615	1577450.495044143287	3
0	92620	1577459.082312964338	2
0	92625	1577462.381298481126	1
0	92630	1577543.557056233444	0
0	92650	1577744.419815203163	1
0	92652	1577746.463344255924	2
0	92653	1577785.39303685492	1
0	92658	1577863.00667568784	0
0	92671	1577983.627293093187	1
0	92672	1578018.567087483298	0
0	92699	1578399.172206632099	1
0	92701	1578400.454737012292	2
0	92702	1578452.390443699537	1
0	92708	1578570.185459672188	2
0	92709	1578572.326735308238	1
0	92714	1578583.829282847918	0
0	92776	1579645.426820059343	1
0	92777	1579663.458083451374	0
0	92805	1579896.175023415054	1
0	92807	1580053.001655939022	2
0	92809	1580088.495479780262	3
0	92811	1580122.507416285796	4
0	92813	1580186.077566474488	5
0	92815	1580290.440729212857	6
0	92817	1580445.58437338495	7
0	92819	1580531.667908963527	8
0	92821	1580716.482073689839	9
0	92823	1580764.090658292745	10
0	92824	1580882.044483032349	9
0	92830	1580940.133774611949	10
0	92831	1580993.351142775473	9
0	92837	1581234.326682841158	8
0	92842	1581275.22518786932	7
0	92848	1581309.210813189541	6
0	92854	1581373.629696609521	7
0	92856	1581420.794102475717	8
0	92858	1581704.116171073434	9
0	92859	1581720.179717396908	8
0	92863	1581793.432590141283	7
0	92869	1581849.250753990003	8
0	92870	1581863.645577114387	7
0	92876	1582058.955145735898	8
0	92877	1582272.199787942605	7
0	92883	1582623.628323139876	8
0	92885	1582832.249841298697	9
0	92887	1582901.60155481833	10
0	92889	1583041.828016365078	11
0	92891	1583149.88392274663	12
0	92893	1583216.834085842668	13
0	92895	1583224.759099878448	14
0	92897	1583487.958106746121	15
0	92899	1583536.293089941601	16
0	92901	1583795.491912343179	17