version 2
run Simulations-1-20191215-22:53:53-18910
attr configname Simulations
attr datetime 20191215-22:53:53
attr experiment Simulations
attr inifile omnetpp.ini
attr iterationvars "$seed=7, $0=1980"
attr iterationvarsf seed=7,1980-
attr measurement "$seed=7, $0=1980"
attr network WifiCelNetPassiveQueue
attr processid 18910
attr repetition 0
attr replication #0
attr resultdir results/Simulations/omnet
attr runnumber 1
attr seedset 7
itervar seed 7
param **.numJobs 14000
param *.OFFLOAD.deadline exponential(1980s)
param *.source.interArrivalTime exponential(120s)
param *.WIFI.serviceTime exponential(40s)
param *.CELL.serviceTime exponential(400s)
param *.OFFLOAD.switchToWi exponential(1524s)
param *.OFFLOAD.switchToCel exponential(3120s)
param *.LOCAL.serviceTime exponential(5s)
param *.REMOTE.serviceTime exponential(1s)

vector 0 WifiCelNetPassiveQueue.OFFLOAD queueLength:vector ETV
attr interpolationmode sample-hold
attr title "queue length, vector"
vector 1 WifiCelNetPassiveQueue.WIFI serviceTime:vector ETV
attr interpolationmode none
attr title "wifi Service, vector"
attr unit s
vector 2 WifiCelNetPassiveQueue.WIFI responseTime:vector ETV
attr interpolationmode none
attr title "Response Time, vector"
attr unit s
vector 3 WifiCelNetPassiveQueue.REMOTE serviceTime:vector ETV
attr interpolationmode none
attr title "wifi Service, vector"
attr unit s
vector 4 WifiCelNetPassiveQueue.REMOTE responseTime:vector ETV
attr interpolationmode none
attr title "Response Time, vector"
attr unit s
vector 5 WifiCelNetPassiveQueue.sink lifeTime:vector ETV
attr interpolationmode none
attr title "lifetime of arrived jobs, vector"
attr unit s
vector 6 WifiCelNetPassiveQueue.OFFLOAD storeCelTime:vector ETV
attr interpolationmode none
attr title "Time in Cell, vector"
attr unit s
vector 7 WifiCelNetPassiveQueue.CELL serviceTime:vector ETV
attr interpolationmode none
attr title "wifi Service, vector"
attr unit s
vector 8 WifiCelNetPassiveQueue.CELL responseTime:vector ETV
attr interpolationmode none
attr title "Response Time, vector"
attr unit s
vector 9 WifiCelNetPassiveQueue.OFFLOAD storeDeadline:vector ETV
attr interpolationmode none
attr title "deadline, vector"
attr unit s
vector 10 WifiCelNetPassiveQueue.LOCAL serviceTime:vector ETV
attr interpolationmode none
attr title "wifi Service, vector"
attr unit s
vector 11 WifiCelNetPassiveQueue.LOCAL responseTime:vector ETV
attr interpolationmode none
attr title "Response Time, vector"
attr unit s
vector 12 WifiCelNetPassiveQueue.OFFLOAD storeWifiTime:vector ETV
attr interpolationmode none
attr title "Time in Wifi, vector"
attr unit s
vector 13 WifiCelNetPassiveQueue.REMOTE queueLength:vector ETV
attr interpolationmode sample-hold
attr title "queue length, vector"
vector 14 WifiCelNetPassiveQueue.LOCAL queueLength:vector ETV
attr interpolationmode sample-hold
attr title "queue length, vector"
0	86667	1500134.448460057645	1
0	86668	1500156.556580754375	0
0	86681	1500236.47942305555	1
0	86682	1500238.503781443788	0
0	86695	1500352.4603191418	1
0	86697	1500376.262899584107	2
0	86698	1500407.092898963381	1
0	86703	1500427.008039142721	0
0	86744	1501075.776746186824	1
0	86746	1501090.484645718395	2
0	86747	1501189.327687045139	1
0	86753	1501265.930399377829	2
0	86754	1501292.774233644464	1
0	86759	1501300.677295651775	0
0	86772	1501458.717580358335	1
0	86773	1501533.5942148475	0
0	86786	1501637.165994404952	1
0	86787	1501708.700563923655	0
0	86863	1503312.247351343021	1
0	86864	1503378.644231986917	0
0	86870	1503412.302649797998	1
0	86871	1503435.172155563929	0
0	86884	1503552.370564979943	1
0	86885	1503568.112414463436	0
0	86898	1503715.365922475444	1
0	86900	1503736.391553735213	2
0	86901	1503745.45813342434	1
0	86907	1503819.531892066255	2
0	86909	1503920.565015588019	3
0	86910	1503943.297572212235	2
0	86915	1503955.947978251569	1
0	86921	1503984.094532588983	2
0	86923	1504002.736148896603	3
0	86924	1504061.761453795339	2
0	86930	1504101.975476251247	3
0	86932	1504114.866593994147	2
0	86937	1504196.647873818766	1
0	86942	1504257.854167474796	0
0	86976	1505264.377756748408	1
0	86977	1505367.210237416086	0
0	86990	1505580.314330627275	1
0	86992	1505618.67028981605	2
0	86994	1505757.014579004902	3
0	86995	1505808.80745589044	2
0	86999	1505885.070020873511	1
0	87005	1505899.199518363561	2
0	87007	1506081.337918505433	3
0	87009	1506358.960781301668	4
0	87012	1506510.138552025889	5
0	87014	1506532.237037570321	6
0	87016	1506696.633006228437	7
0	87018	1506725.243227725995	8
0	87020	1506837.594998823377	9
0	87021	1506927.692814667805	8
0	87026	1506942.104405501488	7
0	87031	1507048.522894075119	6
0	87036	1507075.511761179499	5
0	87041	1507187.411086425958	4
0	87046	1507211.503820417683	3
0	87051	1507263.17394995243	2
0	87056	1507295.840885797977	1
0	87061	1507316.221759924675	0
0	87067	1507352.891793000591	1
0	87068	1507378.654449977458	0
0	87095	1507988.460832460923	1
0	87096	1507997.190750353523	0
0	87109	1508158.126774563725	1
0	87110	1508189.015255785037	0
0	87167	1509571.265374705539	1
0	87169	1509598.707416289994	2
0	87170	1509609.819827249407	1
0	87175	1509644.868953712416	0
0	87288	1512665.518306252587	1
0	87290	1512749.587635912592	2
0	87291	1512756.946706376438	1
0	87297	1512760.804867558351	2
0	87298	1512784.74754742448	1
0	87304	1512803.267023543142	2
0	87305	1512832.055592659758	1
0	87311	1512837.859931839179	2
0	87312	1512845.456345568018	1
0	87315	1512845.461952848882	0
0	87323	1512863.776074569968	1
0	87324	1512893.61522057472	0
0	87344	1513180.114277984268	1
0	87345	1513199.027446293928	0
0	87349	1513199.563220607095	1
0	87352	1513204.891688887549	0
0	87379	1513498.437899330531	1
0	87380	1513533.31554906838	0
0	87456	1514568.675076623513	1
0	87458	1514603.137319944278	2
0	87459	1514621.153239591266	1
0	87464	1514659.212283862587	0
0	87470	1514669.955392153792	1
0	87471	1514695.89857685443	0
0	87485	1515090.389886734896	1
0	87486	1515149.184558532001	0
0	87521	1515673.588422862879	1
0	87523	1515700.060418396138	2
0	87525	1515709.828479452462	3
0	87526	1515749.683273925708	2
0	87531	1515802.179223441323	1
0	87536	1515807.953162939142	0
0	87549	1515825.590645279336	1
0	87550	1515831.669029493334	0
0	87591	1516479.627381500381	1
0	87592	1516495.688798591172	0
0	87612	1516643.347590520481	1
0	87614	1516661.571650960401	2
0	87615	1516749.947295548595	1
0	87621	1516767.126769639421	2
0	87622	1516836.399721586288	1
0	87625	1516837.362475967123	0
0	87647	1517407.211088489184	1
0	87649	1517448.127750404916	2
0	87650	1517455.546116079357	1
0	87655	1517491.622045841741	0
0	87661	1517502.777316276342	1
0	87663	1517509.081727811791	2
0	87664	1517510.328565584679	1
0	87669	1517528.894372954699	0
0	87675	1517531.372407771215	1
0	87676	1517583.654840883641	0
0	87682	1517646.615542017211	1
0	87683	1517810.268527195827	0
0	87689	1517826.699067315105	1
0	87691	1517867.617836359416	2
0	87692	1517913.611122596207	1
0	87697	1517974.500917561664	0
0	87717	1518070.971828998611	1
0	87718	1518102.311858210036	0
0	87759	1519071.467201603454	1
0	87760	1519072.995008529649	0
0	87787	1519647.193533567178	1
0	87789	1519658.971488669377	2
0	87791	1519662.124396241518	3
0	87793	1519718.333902170002	4
0	87794	1519760.568663592232	3
0	87800	1519787.468857618817	4
0	87801	1519907.827242536177	3
0	87806	1519930.093826825063	2
0	87811	1520001.306886910902	1
0	87816	1520016.988568295547	0
0	87851	1520457.268971400088	1
0	87853	1520718.333082750263	2
0	87855	1520853.014220674782	3
0	87856	1520943.275172197513	2
0	87863	1521049.424094163247	3
0	87864	1521052.3299403687	2
0	87869	1521150.498999797787	1
0	87874	1521181.376326505479	0
0	87894	1521603.999539647908	1
0	87895	1521636.722446240151	0
0	87908	1521753.996741711591	1
0	87909	1521769.266767735331	0
0	87973	1523500.615615045247	1
0	87974	1523504.155264582615	0
0	87987	1523651.81095710345	1
0	87988	1523665.980198197167	0
0	88001	1523710.087912446915	1
0	88002	1523722.250162970326	0
0	88206	1527977.406189319341	1
0	88207	1527993.110453827739	0
0	88221	1528222.007216557083	1
0	88223	1528226.339045849837	2
0	88225	1528358.662519213419	3
0	88227	1528365.34425310944	4
0	88229	1528535.325517162825	5
0	88231	1528555.1998225777	6
0	88233	1528589.7749032075	7
0	88235	1528640.666096591058	8
0	88236	1528649.047984799766	7
0	88239	1528661.708501530071	8
0	88243	1528687.73855291142	9
0	88245	1528750.076037630808	10
0	88246	1528766.05099017887	9
0	88251	1528799.982372399851	10
0	88252	1528830.30858482081	9
0	88262	1528975.734691184817	10
0	88264	1529154.510858436817	9
0	88268	1529314.556989674544	8
0	88274	1529411.907187001756	9
0	88276	1529474.433822426572	10
0	88277	1529770.829730888703	9
0	88282	1529868.569402590552	8
0	88287	1529874.336479485171	7
0	88290	1529874.574115755326	6
0	88297	1529933.718680114755	5
0	88302	1529979.442771392192	4
0	88307	1530033.117939121438	3
0	88310	1530033.782875889435	2
0	88318	1530090.55283482628	3
0	88320	1530103.268382100669	4
0	88321	1530111.653420074366	3
0	88326	1530124.869518992735	2
0	88331	1530159.469833513846	1
0	88336	1530174.843632067528	0
0	88349	1530423.956496235262	1
0	88350	1530467.038439270693	0
0	88356	1530474.888822971694	1
0	88357	1530527.195560627438	0
0	88412	1531361.322286264143	1
0	88414	1531394.27565249495	2
0	88415	1531409.210170100751	1
0	88420	1531464.920805845991	0
0	88426	1531495.616815428656	1
0	88427	1531520.213099927023	0
0	88497	1532403.975851618512	1
0	88499	1532461.184731780944	2
0	88501	1532893.93043807371	3
0	88503	1533044.093026781276	4
0	88505	1533148.816413307908	5
0	88506	1533179.170489020764	4
0	88511	1533318.101326059356	3
0	88517	1533379.153419472489	4
0	88519	1533499.95282175142	5
0	88520	1533503.096940233745	4
0	88524	1533535.007723023933	3
0	88530	1533587.230246942704	4
0	88532	1533680.401760868366	5
0	88534	1533795.202262799414	6
0	88536	1533795.252279404417	7
0	88537	1533817.118297647227	6
0	88542	1533891.614756625742	5
0	88546	1534050.347805375361	4
0	88552	1534123.06046675372	5
0	88554	1534180.253492196197	6
0	88557	1534292.790380742203	7
0	88558	1534315.977992060062	6
0	88564	1534317.708175512676	7
0	88565	1534363.942878776546	6
0	88570	1534367.919694451311	5
0	88575	1534383.404462586946	4
0	88581	1534409.06475190662	5
0	88583	1534432.246588798788	6
0	88584	1534442.88452425191	5
0	88589	1534445.930053612754	4
0	88595	1534491.989164419656	5
0	88596	1534502.186031278002	4
0	88601	1534526.301863871014	3
0	88606	1534544.092474813154	2
0	88611	1534551.446672980258	1
0	88617	1534555.979163358976	2
0	88619	1534586.014483311114	3
0	88621	1534645.764554938196	4
0	88622	1534664.48824740031	3
0	88628	1534673.292830507963	4
0	88629	1534702.720183873475	3
0	88634	1534709.964095936268	2
0	88640	1534732.771468477903	3
0	88642	1534758.498196440442	4
0	88643	1534810.886806340144	3
0	88648	1534859.580198316887	2
0	88653	1534898.807710196114	1
0	88659	1534908.906044905524	2
0	88660	1534950.312883334467	1
0	88665	1534958.185665720843	0
0	88678	1535433.955444020263	1
0	88679	1535483.72259688371	0
0	88685	1535511.992222122224	1
0	88686	1535608.899643349384	0
0	88720	1536004.779281990563	1
0	88722	1536088.903729872987	2
0	88723	1536093.674939942315	1
0	88728	1536102.803309299786	0
0	88748	1536436.29779079357	1
0	88749	1536479.060625881434	0
0	88762	1536527.110528095909	1
0	88764	1536561.324812776906	2
0	88766	1536601.923067070972	3
0	88768	1536621.507916752777	4
0	88769	1536622.100902647522	3
0	88774	1536629.236728930089	2
0	88780	1536701.409410776748	3
0	88781	1536750.810601377217	2
0	88786	1536772.762501102412	1
0	88791	1536787.407638483208	0
0	88825	1537325.55735543799	1
0	88826	1537331.515294914281	0
0	88839	1537386.982076383255	1
0	88840	1537403.192952752986	0
0	88874	1537813.530029489476	1
0	88875	1537835.610902357684	0
0	88881	1537889.507762703534	1
0	88882	1537897.342822557582	0
0	88909	1538371.570973106	1
0	88910	1538382.037614873897	0
0	88944	1539434.421591850145	1
0	88945	1539435.922285386802	0
0	88965	1540146.629579631936	1
0	88966	1540198.634260182237	0
0	88979	1540473.604024245699	1
0	88980	1540493.124534584955	0
0	89007	1541062.949584228597	1
0	89008	1541063.996854472765	0
0	89035	1541776.377925975379	1
0	89037	1541805.643623447834	2
0	89039	1541836.546574838121	3
0	89040	1541938.669437040164	2
0	89045	1542004.477207651953	1
0	89051	1542020.655037900379	2
0	89052	1542033.166462163854	1
0	89057	1542081.922857516777	0
0	89099	1543211.157897472603	1
0	89101	1543255.63152720606	2
0	89103	1543445.80758802847	3
0	89105	1543558.418368540893	4
0	89107	1543569.21986577524	5
0	89108	1543577.302316483297	4
0	89114	1543766.476662743074	5
0	89115	1543772.326078217088	4
0	89121	1543983.663952238284	5
0	89123	1544000.650640019881	6
0	89125	1544023.090471617619	7
0	89127	1544088.077298485549	8
0	89129	1544096.840796862788	9
0	89130	1544121.773045052063	8
0	89136	1544263.064689748791	9
0	89138	1544267.676456751763	10
0	89140	1544307.860963577544	11
0	89141	1544449.216367318356	10
0	89146	1544500.901646909692	9
0	89151	1544719.711081713706	10
0	89153	1544993.05044968098	11
0	89155	1545029.457288885613	12
0	89156	1545031.752369131937	11
0	89161	1545040.413420903026	10
0	89163	1545067.54076273458	9
0	89169	1545165.367176822564	8
0	89175	1545178.663400202169	9
0	89177	1545183.11381798079	10
0	89179	1545183.240985556716	11
0	89180	1545226.024934441906	10
0	89184	1545233.61632159391	9
0	89188	1545299.473297492886	8
0	89193	1545337.628962455756	7
0	89199	1545409.007795663588	8
0	89200	1545490.486061460384	7
0	89204	1545506.432119606987	6
0	89209	1545515.688310716975	5
0	89215	1545605.173512209495	6
0	89216	1545636.303093743079	5
0	89222	1545739.313622879103	6
0	89224	1545831.808505607109	7
0	89225	1545859.677199197498	6
0	89230	1545891.043853834106	5
0	89234	1545976.779332620792	4
0	89239	1546026.727094448239	3
0	89245	1546138.171892927342	4
0	89248	1546210.28101949272	5
0	89250	1546283.876065935162	6
0	89252	1546699.594863107938	7
0	89253	1546744.6747241502	6
0	89258	1546766.955050370908	5
0	89265	1546859.354620073192	6
0	89266	1546873.212970502912	5
0	89272	1546881.472582935603	6
0	89274	1546886.847730778351	7
0	89276	1546971.725893977298	8
0	89278	1547047.492720493394	9
0	89280	1547164.120506900881	10
0	89281	1547266.564015025308	9
0	89286	1547315.106899276377	8
0	89291	1547319.595231228369	7
0	89294	1547323.569443596009	8
0	89297	1547341.691522105482	7
0	89303	1547344.163831009199	8
0	89305	1547416.386029106848	9
0	89307	1547477.022450988808	10
0	89308	1547540.295465688521	9
0	89312	1547547.891131799258	8
0	89318	1547594.506828356453	9
0	89320	1547648.67964743035	10
0	89324	1547758.362196608501	11
0	89327	1547856.104078150389	12
0	89332	1548489.435888583472	13
0	89334	1548558.550240706114	14
0	89336	1548592.424172014648	15
0	89338	1548636.38609415746	16
0	89340	1548677.013692369421	17
0	89341	1548762.158823863329	16
0	89347	1548785.599944202586	15
0	89353	1548786.406452833897	16
0	89354	1548787.454480872967	15
0	89357	1548788.431126043713	14
0	89364	1548791.401253726821	13
0	89369	1548801.101331507347	12
0	89374	1548849.01870342058	11
0	89379	1548899.51159525902	10
0	89384	1548906.133594023669	9
0	89389	1548923.687123473303	8
0	89395	1548966.251297265461	9
0	89397	1549012.085628743625	10
0	89399	1549021.829868901267	11
0	89400	1549079.648127561204	10
0	89405	1549150.912814875326	9
0	89410	1549204.781448602995	8
0	89413	1549207.274328537113	7
0	89420	1549235.041073400507	6
0	89425	1549295.567628456056	5
0	89428	1549298.690604251452	4
0	89435	1549392.603849658845	3
0	89441	1549404.872057707415	4
0	89442	1549419.574071092496	3
0	89447	1549432.183793231892	2
0	89452	1549466.254841720059	1
0	89457	1549487.156616542236	0
0	89477	1549612.250094655909	1
0	89479	1549630.694353494633	2
0	89480	1549753.110503044493	1
0	89486	1549767.233444095014	2
0	89487	1549769.440490474166	1
0	89492	1549798.467845810001	0
0	89526	1550376.114527493538	1
0	89527	1550389.21926329019	0
0	89547	1550819.714212717403	1
0	89549	1550854.849158470327	2
0	89550	1550884.346738950587	1
0	89555	1550896.900722872329	0
0	89631	1552180.520082932663	1
0	89632	1552194.259230607166	0
0	89645	1552306.083725728422	1
0	89646	1552324.716697778968	0
0	89708	1552949.39563638562	1
0	89709	1553003.981497077791	0
0	89733	1553466.893826691899	1
0	89734	1553540.304322027921	0
0	89739	1553560.098387107461	1
0	89740	1553590.520971628728	0
0	89753	1553829.354476864504	1
0	89754	1553990.653594103257	0
0	89759	1554090.477119142988	1
0	89760	1554217.394881999095	0
0	89765	1554278.11849505713	1
0	89767	1554316.140553574032	2
0	89769	1554390.405526371254	3
0	89770	1554559.253076774482	2
0	89776	1554602.856122569738	3
0	89778	1554764.207287729896	4
0	89780	1554826.240555450146	5
0	89781	1554831.027893234939	4
0	89785	1554863.358149208927	3
0	89790	1554886.843824773046	4
0	89792	1555033.651463282239	5
0	89793	1555048.716642696479	4
0	89798	1555165.870916954886	5
0	89799	1555179.343811354985	4
0	89805	1555194.945915302513	5
0	89806	1555278.948390721105	4
0	89809	1555281.740898312264	5
0	89813	1555319.968856814458	6
0	89815	1555388.392265479812	7
0	89816	1555427.548647296922	6
0	89821	1555474.680265258309	7
0	89822	1555483.953713759694	6
0	89827	1555486.733264573717	7
0	89829	1555565.092202418966	8
0	89830	1555722.496334793427	7
0	89834	1555756.734921151096	6
0	89839	1555896.8205102791	5
0	89844	1555938.523559509611	6
0	89846	1556071.375384526192	7
0	89848	1556077.995055171218	8
0	89850	1556087.602139273128	9
0	89851	1556197.347112594478	8
0	89856	1556282.999307010522	9
0	89858	1556333.405932806954	10
0	89859	1556403.252778399192	9
0	89865	1556426.566798267203	10
0	89867	1556587.368049274047	11
0	89868	1556630.023659184018	10
0	89871	1556633.588527631746	11
0	89874	1556674.497401326505	10
0	89880	1556706.209209048432	11
0	89882	1556751.239292621125	12
0	89883	1556770.017544981141	11
0	89887	1556787.18308962108	10
0	89892	1556839.109170987614	11
0	89893	1556873.088812387088	10
0	89897	1556974.409695014414	9
0	89902	1557128.214752300056	10
0	89904	1557281.048696285235	11
0	89906	1557313.852219624399	10
0	89911	1557325.325458659094	9
0	89916	1557396.708527380544	8
0	89921	1557438.91450668984	7
0	89924	1557440.178701505562	6
0	89932	1557478.479027592621	7
0	89933	1557491.846856996335	6
0	89938	1557502.596483140717	5
0	89943	1557507.103492641119	4
0	89948	1557537.863477764274	3
0	89953	1557586.217376715507	2
0	89959	1557592.041193221024	3
0	89960	1557627.457829578039	2
0	89966	1557640.206835878349	3
0	89967	1557686.112921572692	2
0	89972	1557781.113309286237	1
0	89977	1557787.681662960181	0
0	89983	1557793.070784693222	1
0	89984	1557809.43164280562	0
0	90025	1558326.062335061162	1
0	90027	1558344.357389259553	2
0	90028	1558406.527330877991	1
0	90034	1558414.880474023176	2
0	90036	1558425.152529487898	3
0	90037	1558434.919008055312	2
0	90043	1558438.425933231222	3
0	90045	1558469.557601540276	4
0	90046	1558481.179897072132	3
0	90051	1558503.157604627966	2
0	90054	1558503.187391188061	1
0	90061	1558510.380086051205	0
0	90095	1559219.962022983807	1
0	90096	1559222.506858175151	0
0	90110	1559682.03900771015	1
0	90112	1559824.406035544451	2
0	90113	1559855.317602277405	1
0	90117	1559890.854548207847	0
0	90123	1559979.527451152926	1
0	90125	1559991.083883764388	2
0	90127	1560121.788705481165	3
0	90129	1560205.801529792058	4
0	90131	1560221.166991086931	5
0	90133	1560318.423570349413	6
0	90135	1560516.070032808269	7
0	90137	1560594.965219153213	8
0	90139	1560708.783310780105	9
0	90141	1560722.164580488878	10
0	90143	1560984.665024124744	11
0	90145	1561019.483406633232	12
0	90147	1561020.439499712531	13
0	90149	1561085.001309381851	14
0	90151	1561120.374198335461	15
0	90153	1561249.979991140488	16
0	90156	1561384.817588226199	17
0	90158	1561530.278464479334	18
0	90160	1561566.445562322659	19
0	90163	1561648.78015361755	20
0	90164	1561651.995123407977	19
0	90169	1561686.68809465943	18
0	90174	1561695.007822607574	17
0	90180	1561704.358697019267	18
0	90181	1561740.437430409945	17
0	90187	1561744.754549128112	18
0	90188	1561752.312901944001	17
0	90193	1561762.549073221785	16
0	90200	1561779.287931614587	17
0	90202	1561911.06691941979	16
0	90207	1561972.342615678648	15
0	90213	1562031.546230597491	16
0	90214	1562142.579317305343	15
0	90219	1562208.872368280709	14
0	90224	1562263.957807339989	13
0	90229	1562305.720082906014	12
0	90234	1562368.521539209787	11
0	90239	1562385.234137450086	10
0	90246	1562443.394035398334	11
0	90248	1562475.958130903581	12
0	90251	1562521.128860869481	13
0	90252	1562535.186645168513	12
0	90258	1562544.758490511645	13
0	90259	1562609.402700282987	12
0	90265	1562663.415606915768	13
0	90267	1562683.796061643568	14
0	90268	1562703.683750635138	13
0	90274	1562710.911365338202	14
0	90276	1562822.01730601946	13
0	90282	1562918.738444544355	12
0	90288	1562961.325158990251	11
0	90294	1562966.323267357709	12
0	90295	1563019.747243302903	11
0	90301	1563130.354754479091	12
0	90303	1563164.074909434627	13
0	90304	1563257.46932393662	12
0	90310	1563273.268269959059	13
0	90312	1563365.173475384437	14
0	90313	1563416.832080758275	13
0	90320	1563492.110264330781	12
0	90325	1563513.160527912477	11
0	90331	1563522.380801718493	12
0	90332	1563531.938861182288	11
0	90338	1563555.467739107485	10
0	90343	1563578.354026447391	9
0	90348	1563588.690616752529	8
0	90353	1563594.086379314674	7
0	90358	1563597.746735853288	6
0	90363	1563616.547149870771	5
0	90369	1563696.644245623054	6
0	90370	1563727.364874528579	5
0	90375	1563732.51008265594	4
0	90380	1563736.317572681481	3
0	90386	1563742.031104451275	4
0	90387	1563782.617010666973	3
0	90392	1563826.754863269078	2
0	90398	1563888.791967033556	3
0	90399	1563895.788246449463	2
0	90405	1563899.15946776156	3
0	90406	1563914.371989219584	2
0	90411	1563924.265943551455	1
0	90416	1563988.743029854788	0
0	90422	1564070.660196346113	1
0	90423	1564085.411881756834	0
0	90471	1564844.613892112229	1
0	90472	1564871.123895847713	0
0	90478	1564909.550102151663	1
0	90480	1564913.560696460688	2
0	90482	1564929.270191294933	3
0	90483	1565000.442870269033	2
0	90488	1565020.067742233447	1
0	90494	1565040.844424337591	2
0	90495	1565087.090374765367	1
0	90500	1565111.067459362893	0
0	90506	1565118.68151350008	1
0	90507	1565163.230217473801	0
0	90534	1565861.074303948472	1
0	90535	1565876.85030495125	0
0	90541	1565881.525139695498	1
0	90542	1565908.958516052278	0
0	90611	1567747.746951652385	1
0	90612	1567807.606500953292	0
0	90622	1567948.965718243112	1
0	90623	1567998.492537506281	0
0	90628	1568326.318357353394	1
0	90630	1568345.474040034033	2
0	90631	1568449.1756422991	1
0	90634	1568455.594893784888	2
0	90638	1568480.753409560143	3
0	90639	1568596.376593890368	2
0	90644	1568611.465258349478	3
0	90646	1568617.484488009315	4
0	90648	1568629.132018921045	5
0	90649	1568750.781938293892	4
0	90655	1568758.33423772881	5
0	90656	1568792.9492053275	4
0	90662	1568819.081206417193	5
0	90663	1568839.518943504964	4
0	90668	1568873.356102320434	5
0	90670	1568874.077466829251	6
0	90672	1568895.882397190987	7
0	90674	1569083.682239052922	8
0	90676	1569227.839816085376	9
0	90677	1569294.734635776882	8
0	90682	1569428.885076247787	7
0	90686	1569479.329866701817	6
0	90691	1569497.318639908305	5
0	90696	1569514.270446622592	6
0	90697	1569622.693829868642	5
0	90702	1569661.314960879134	4
0	90706	1569669.651388695271	3
0	90712	1569715.609385769014	4
0	90713	1569904.066256974542	3
0	90718	1569927.7477338407	4
0	90719	1570029.702734722596	3
0	90725	1570120.790345025764	4
0	90726	1570150.845480918105	3
0	90732	1570230.982007466828	4
0	90734	1570300.879878274545	5
0	90736	1570314.307697269682	6
0	90737	1570445.957263488185	5
0	90742	1570498.646153553251	6
0	90744	1570545.800291487484	7
0	90745	1570559.119814096974	6
0	90750	1570585.893702641244	5
0	90754	1570588.431975666575	6
0	90758	1570604.054086931964	7
0	90760	1570763.534267097754	8
0	90761	1570866.32191143004	7
0	90767	1570908.882953225748	8
0	90770	1570996.364546978305	9
0	90772	1571013.899343703968	10
0	90774	1571184.935390484845	11
0	90776	1571215.026462743751	12
0	90777	1571221.140584893084	11
0	90782	1571235.680572251623	10
0	90787	1571288.51354864898	9
0	90792	1571314.969056158443	8
0	90797	1571388.297121561091	7
0	90803	1571416.920640155271	8
0	90805	1571451.186430597352	9
0	90806	1571506.25087539362	8
0	90811	1571550.079907348099	7
0	90817	1571560.917862879005	8
0	90818	1571607.802386901238	7
0	90823	1571666.929293957791	6
0	90826	1571667.174406180915	5
0	90834	1571689.189342316047	6
0	90835	1571693.117387179658	5
0	90840	1571747.914337654083	4
0	90845	1571784.188787240181	3
0	90850	1571938.254317032679	2
0	90856	1571952.055703392072	3
0	90857	1571976.938599282394	2
0	90863	1572021.114131581796	3
0	90864	1572021.773222995906	2
0	90870	1572046.00636460953	3
0	90871	1572143.715531030629	2
0	90876	1572256.599566568937	1
0	90881	1572260.458904559341	0
0	90894	1572302.554423454828	1
0	90895	1572312.657299895343	0
0	90930	1572862.827510004294	1
0	90931	1572975.037361977165	0
0	90959	1573889.907189219026	1
0	90961	1573891.935754636126	2
0	90962	1573900.987435285039	1
0	90967	1573933.63090973885	0
0	90980	1574154.459590920286	1
0	90981	1574228.381227713426	0
0	90987	1574253.887139238042	1
0	90988	1574259.50186212871	0
0	91001	1574379.423421655003	1
0	91002	1574384.704658058828	0
0	91078	1575608.639202374242	1
0	91079	1575637.845931551862	0
0	91092	1575899.952479545068	1
0	91093	1575975.031045366623	0
0	91113	1576467.856820172615	1
0	91115	1576530.542491033787	2
0	91116	1576608.690393494903	1
0	91121	1576615.149180096465	0
0	91134	1576733.700647601477	1
0	91135	1576737.941889209854	0
0	91155	1577195.397510007648	1
0	91156	1577209.209922484084	0
0	91169	1577361.650677112245	1
0	91171	1577448.948083298952	2
0	91172	1577450.056262612242	1
0	91177	1577475.865573322385	0
0	91190	1577620.258463662	1
0	91191	1577709.782216635751	0
0	91302	1579668.074964585122	1
0	91304	1579707.109179958264	2
0	91305	1579727.062099060213	1
0	91311	1579733.498812841361	2
0	91312	1579762.962641492671	1
0	91317	1579773.728416934058	0
0	91401	1581918.110370991903	1
0	91402	1581940.357785613581	0
0	91407	1582008.064944279483	1
0	91409	1582033.055978721203	2
0	91411	1582210.16343539593	3
0	91414	1582350.958886929882	4
0	91416	1582366.852704127137	5
0	91417	1582381.402566455571	4
0	91420	1582382.594555122726	3
0	91427	1582397.124099296105	2
0	91432	1582460.822407538242	1
0	91437	1582499.809449123747	0
0	91492	1583807.39329213299	1
0	91493	1583871.448818303225	0
0	91555	1584921.96144597205	1
0	91556	1584955.691276126528	0
0	91653	1587004.624303992678	1
0	91655	1587042.782951055385	2
0	91656	1587043.086903318786	1
0	91661	1587054.992853191874	0
0	91688	1587359.230834901938	1
0	91690	1587366.202299263144	2
0	91692	1587382.566269030217	3
0	91693	1587396.691689100898	2
0	91699	1587401.250734393156	3
0	91700	1587528.681615062322	2
0	91706	1587547.990070987358	3
0	91708	1587554.465188196554	4
0	91709	1587588.793169670399	3
0	91715	1587666.07722010159	4
0	91716	1587697.418711455428	3
0	91721	1587701.153703371543	2
0	91726	1587705.320278756802	1
0	91731	1587752.371140921696	0
0	91751	1587937.054947679166	1
0	91752	1587938.258911690555	0
0	91758	1587966.292014803385	1
0	91759	1587992.458629918374	0
0	91779	1588074.255549796144	1
0	91781	1588078.643267765396	2
0	91782	1588107.353393264809	1
0	91787	1588129.78394411919	0
0	91829	1588896.733034643777	1
0	91830	1589033.070733350905	0
0	91836	1589218.595271839131	1
0	91837	1589235.2363529836	0
0	91842	1589249.708988286298	1
0	91843	1589261.499807559913	0
0	91848	1589364.984064952432	1
0	91851	1589506.946353494247	2
0	91852	1589551.464009950552	1
0	91857	1589663.001732198754	0
0	91898	1590914.795732358969	1
0	91899	1590941.99288088163	0
0	91912	1591243.992690546499	1
0	91913	1591399.999416820036	0
0	91933	1591637.138951913414	1
0	91935	1591662.788789034403	2
0	91937	1591663.809637369655	3
0	91938	1591672.111458777476	2
0	91943	1591672.297385058033	1
0	91948	1591692.873657598064	0
0	91968	1591866.222858174593	1
0	91969	1591878.207115627933	0
0	92003	1592594.247271960321	1
0	92005	1592629.499872655747	2
0	92007	1592629.979659036578	3
0	92009	1592665.502317419212	4
0	92011	1592666.418593109554	5
0	92012	1592710.311678118679	4
0	92017	1592737.050379023247	3
0	92022	1592769.090821583068	2
0	92027	1592845.171966137826	1
0	92032	1592881.23013844164	0
0	92046	1593206.633831572558	1
0	92048	1593252.234878488129	2
0	92050	1593259.888348444484	3
0	92051	1593356.184430054985	2
0	92056	1593463.235023172644	3
0	92058	1593564.884333134009	4
0	92060	1593771.673384810401	5
0	92062	1593898.295605652594	6
0	92064	1594057.252525740115	7
0	92065	1594125.792257540392	6
0	92070	1594156.308563449942	7
0	92071	1594234.088146083653	6
0	92076	1594309.971943847347	7
0	92078	1594312.105492066997	8
0	92079	1594379.604282328786	7
0	92084	1594448.788089506271	6
0	92089	1594472.644077905429	5
0	92095	1594596.383945610741	6
0	92097	1594681.036276485254	7
0	92099	1594753.284806278202	8
0	92100	1594763.705990302985	7
0	92104	1594788.697383870854	6
0	92109	1594850.67462122976	7
0	92111	1594872.195995530517	8
0	92113	1594919.642867863215	9
0	92114	1594983.687233959959	8
0	92118	1594987.037975873657	7
0	92123	1595108.219880000779	6
0	92128	1595110.045448368511	5
0	92132	1595152.536558591967	4
0	92137	1595259.823133322674	5
0	92138	1595295.047134357521	4
0	92144	1595414.907908560331	3
0	92149	1595418.276119692208	2
0	92154	1595495.687066282732	1
0	92159	1595521.299308250465	0
0	92187	1596524.049041774291	1
0	92190	1596582.477527014026	2
0	92192	1596877.846809565785	3
0	92194	1596911.270043421815	4
0	92196	1596991.776471266435	5
0	92197	1597043.485227519775	4
0	92203	1597049.309782036331	5
0	92204	1597142.682293660556	4
0	92210	1597165.119455422773	5
0	92211	1597174.460995339339	4
0	92216	1597211.939955699916	3
0	92222	1597224.643114289387	4
0	92223	1597261.658992269105	3
0	92229	1597265.681750919178	4
0	92230	1597279.990249134366	3
0	92235	1597286.508945358566	2
0	92240	1597334.686225156823	1
0	92246	1597404.524965981634	2
0	92247	1597414.516877242044	1
0	92252	1597433.504544197542	0
0	92293	1597911.564877462886	1
0	92295	1597937.067757935657	2
0	92296	1597957.751845733214	1
0	92301	1597961.875998824826	0
0	92307	1597987.966924622023	1
0	92308	1598033.895375099266	0