version 2
run Simulations-0-20191215-22:53:52-18910
attr configname Simulations
attr datetime 20191215-22:53:52
attr experiment Simulations
attr inifile omnetpp.ini
attr iterationvars "$seed=7, $0=1500"
attr iterationvarsf seed=7,1500-
attr measurement "$seed=7, $0=1500"
attr network WifiCelNetPassiveQueue
attr processid 18910
attr repetition 0
attr replication #0
attr resultdir results/Simulations/omnet
attr runnumber 0
attr seedset 7
itervar seed 7
param **.numJobs 14000
param *.OFFLOAD.deadline exponential(1500s)
param *.source.interArrivalTime exponential(120s)
param *.WIFI.serviceTime exponential(40s)
param *.CELL.serviceTime exponential(400s)
param *.OFFLOAD.switchToWi exponential(1524s)
param *.OFFLOAD.switchToCel exponential(3120s)
param *.LOCAL.serviceTime exponential(5s)
param *.REMOTE.serviceTime exponential(1s)

vector 0 WifiCelNetPassiveQueue.WIFI serviceTime:vector ETV
attr interpolationmode none
attr title "wifi Service, vector"
attr unit s
vector 1 WifiCelNetPassiveQueue.WIFI responseTime:vector ETV
attr interpolationmode none
attr title "Response Time, vector"
attr unit s
vector 2 WifiCelNetPassiveQueue.REMOTE serviceTime:vector ETV
attr interpolationmode none
attr title "wifi Service, vector"
attr unit s
vector 3 WifiCelNetPassiveQueue.REMOTE responseTime:vector ETV
attr interpolationmode none
attr title "Response Time, vector"
attr unit s
vector 4 WifiCelNetPassiveQueue.sink lifeTime:vector ETV
attr interpolationmode none
attr title "lifetime of arrived jobs, vector"
attr unit s
vector 5 WifiCelNetPassiveQueue.OFFLOAD queueLength:vector ETV
attr interpolationmode sample-hold
attr title "queue length, vector"
vector 6 WifiCelNetPassiveQueue.OFFLOAD storeCelTime:vector ETV
attr interpolationmode none
attr title "Time in Cell, vector"
attr unit s
vector 7 WifiCelNetPassiveQueue.OFFLOAD storeDeadline:vector ETV
attr interpolationmode none
attr title "deadline, vector"
attr unit s
vector 8 WifiCelNetPassiveQueue.LOCAL serviceTime:vector ETV
attr interpolationmode none
attr title "wifi Service, vector"
attr unit s
vector 9 WifiCelNetPassiveQueue.LOCAL responseTime:vector ETV
attr interpolationmode none
attr title "Response Time, vector"
attr unit s
vector 10 WifiCelNetPassiveQueue.CELL serviceTime:vector ETV
attr interpolationmode none
attr title "wifi Service, vector"
attr unit s
vector 11 WifiCelNetPassiveQueue.CELL responseTime:vector ETV
attr interpolationmode none
attr title "Response Time, vector"
attr unit s
vector 12 WifiCelNetPassiveQueue.OFFLOAD storeWifiTime:vector ETV
attr interpolationmode none
attr title "Time in Wifi, vector"
attr unit s
vector 13 WifiCelNetPassiveQueue.REMOTE queueLength:vector ETV
attr interpolationmode sample-hold
attr title "queue length, vector"
vector 14 WifiCelNetPassiveQueue.LOCAL queueLength:vector ETV
attr interpolationmode sample-hold
attr title "queue length, vector"
0	86267	1500095.067118000687	30.778645264718
0	86274	1500184.015971128108	8.717678816549
0	86281	1500298.085778068988	57.536274853842
0	86294	1500424.320365054165	103.38597286679
0	86299	1500471.342968259246	47.022603205081
0	86306	1500522.074999134128	50.732030874882
0	86311	1500569.068435191333	46.993436057205
0	86316	1500574.661658697413	5.59322350608
0	86323	1500765.372343296718	54.544324663457
0	86332	1500947.761319983403	19.216740518527
0	86337	1500957.270847329947	9.509527346544
0	86344	1501053.559124744099	9.482467811501
0	86351	1501238.480621360149	52.481012038572
0	86358	1501589.492240735536	54.463318878826
0	86365	1501725.865965177647	60.1808144396
0	86372	1501768.908511692194	2.466150179939
0	86397	1502345.249701075665	102.6855389394
0	86408	1502595.928419333828	34.7006067475
0	86423	1502929.149246953874	219.52649692817
0	86473	1503847.769068124227	12.804413040112
0	86478	1503857.737817123351	9.968748999124
0	86487	1503988.496977522487	123.90766138682
0	86492	1503994.523786133144	6.026808610657
0	86501	1504070.4441782119	48.848597047816
0	86506	1504087.933622476685	17.489444264785
0	86517	1504239.033295731493	72.032030417669
0	86522	1504258.948435910833	19.91514017934
0	86527	1504283.307799828754	24.359363917921
0	86534	1504396.947947385625	61.220268990242
0	86541	1504595.641892233556	42.145581696483
0	86548	1504741.467747358911	9.899365831823
0	86555	1504779.692149939152	10.265321234762
0	86566	1505021.268083813251	177.75381450555
0	86573	1505124.714630412576	103.44654659933
0	86578	1505132.617692419887	7.903062007311
0	86583	1505195.6274278104	63.009735390513
0	86592	1505365.534611615612	139.65643463933
0	86597	1505422.475389429987	56.940777814375
0	86606	1505540.640960691767	72.160392397576
0	86611	1505587.021515119365	46.380554427598
0	86618	1505821.887811644328	4.243861814741
0	86625	1505952.624395705289	70.884705925651
0	86632	1506123.950119053805	23.614143226026
0	86639	1506168.684460194443	6.661738028331
0	86646	1506188.661005642455	5.299809211882
0	86653	1506242.401221297915	15.26224017295
0	86660	1506283.811478061809	4.200551937257
0	86667	1506595.884388068833	13.257631272965
0	86814	1510474.649251964207	14.411590833683
0	86819	1510581.067740537838	106.41848857363
0	86825	1510608.056607642218	26.98886710438
0	86830	1510719.955932888677	111.89932524646
0	86835	1510744.048666880402	24.092733991725
0	86840	1510795.718796415149	51.670129534747
0	86845	1510828.385732260696	32.666935845547
0	86850	1510848.766606387394	20.380874126698
0	86855	1510911.199296440177	62.432690052783
0	86864	1510970.048310616818	53.652944415972
0	86869	1510980.257786940943	10.209476324125
0	86876	1511036.903741274096	53.933062574473
0	86885	1511349.471327918778	14.8447691728
0	86890	1511361.747914426957	12.276586508179
0	86899	1511541.295833350292	59.034126180002
0	86904	1511818.646592650146	277.35075929985
0	86911	1511850.633962827956	3.96485366345
0	86918	1512010.576057696384	22.940495347051
0	86925	1512069.79178275993	3.371981492009
0	86934	1512437.271630562969	39.818355943448
0	86939	1512461.250072431265	23.978441868296
0	86946	1512472.815829642156	7.304290241147
0	86953	1512522.644226591672	30.237142386988
0	86960	1512590.957924071471	9.147347194818
0	86969	1512764.365296243514	35.049126463009
0	86976	1512811.270251219696	46.904954976182
0	86981	1512912.688889606677	101.41863838698
0	86988	1513012.983570895935	20.83680374762
0	86995	1513095.877881218582	63.027505538664
0	87002	1513103.090477587758	1.255370812267
0	87013	1513193.167272776869	25.236163466336
0	87168	1516187.492053470472	39.374088442837
0	87173	1516267.675226091385	80.183172620913
0	87178	1516342.328148920405	74.65292282902
0	87183	1516352.909324167519	10.581175247114
0	87188	1516378.560897417595	25.651573250076
0	87193	1516394.210547276285	15.64964985869
0	87198	1516457.89075348065	63.680206204365
0	87205	1516480.163444217155	22.272690736505
0	87212	1516491.726888033154	11.563443815999
0	87217	1516493.477715292633	1.750827259479
0	87224	1516626.066358721001	31.814579728671
0	87231	1516700.196568661837	38.562010103123
0	87238	1516768.058127803417	2.96724689955
0	87245	1516838.990243619142	7.182018487538
0	87252	1516937.646664063849	1.238484865891
0	87259	1517159.607691658271	15.006803910101
0	87273	1517587.562626211967	37.746801617926
0	87282	1517623.167829636815	35.605203424848
0	87293	1517667.956732715936	44.788903079121
0	87298	1517690.177784718476	22.22105200254
0	87303	1517723.276373619598	33.098588901122
0	87308	1517800.300076555139	77.023702935541
0	87313	1517811.390175351936	11.090098796797
0	87320	1517842.958673310266	12.198430605914
0	87327	1517899.963306859674	35.771388349707
0	87336	1517994.789411516277	29.879299550447
0	87341	1518002.083024783807	7.29361326753
0	87387	1518800.563400347476	100.93052927933
0	87392	1518819.269920090414	18.706519742938
0	87397	1518826.700146743555	7.430226653141
0	87404	1518845.265954113575	18.56580737002
0	87409	1518883.680332195574	38.414378081999
0	87416	1519016.333902186196	60.027841765965
0	87423	1519649.786709038225	13.639589681437
0	87432	1520007.064700523384	60.889794965457
0	87441	1520214.542968486419	207.47826796303
0	87446	1520224.429129811444	9.886161325025
0	87453	1520266.595597287056	42.166467475612
0	87458	1520311.80899748636	45.213400199304
0	87465	1520430.307908540658	0.917560401738
0	87472	1520500.178501742345	17.810441329255
0	87479	1520669.04976939591	10.097902415155
0	87486	1520804.262720978549	61.66955737243
0	87495	1521041.442238177948	45.004964891549
0	87500	1521050.733514552319	9.291276374371
0	87509	1521197.783014868792	111.84546247655
0	87514	1521198.472025086746	0.689010217954
0	87521	1521317.684640997488	3.925985034066
0	87528	1521852.633238332791	23.044985149605
0	87535	1521974.207875897141	88.410116785471
0	87542	1522373.209212654047	45.635716710543
0	87549	1522410.054930194807	15.681681384645
0	87558	1522634.770397711983	35.761590459624
0	87563	1522668.842496334445	34.072098622462
0	87570	1522813.992920148039	19.579600580466
0	87581	1522943.120770079732	27.965482802095
0	87588	1523030.14214052979	87.021370450058
0	87595	1523168.871400894489	138.7292603647
0	87600	1523190.834407514405	21.963006619916
0	87605	1523213.100027142967	22.265619628562
0	87614	1523392.509311872591	98.169059429087
0	87619	1523428.229550304691	35.7202384321
0	87626	1523712.377249716558	112.37409523234
0	87633	1523761.786072464721	10.731341361864
0	87640	1524089.473857208709	46.547570785124
0	87647	1524191.361251064944	0.781118711162
0	87654	1524278.7865874434	14.356258204056
0	87661	1524414.032218199584	3.589502640937
0	87668	1524600.124120015604	164.37982879724
0	87675	1524758.0018125406	66.318805212798
0	87682	1524867.870124917247	13.360688064299
0	87689	1525032.406321288702	73.234805305311
0	87696	1525212.110980690525	1.199417495639
0	87703	1525418.516200176147	92.700440797024
0	87710	1525866.419534459829	36.003991925065
0	87719	1525967.311005869082	41.557866389161
0	87724	1525969.384428529721	2.073422660639
0	87733	1526129.135939483634	109.2621405457
0	87738	1526135.692626327667	6.556686844033
0	87747	1526185.405904256793	27.026294562942
0	87752	1526192.864358778328	7.458454521535
0	87759	1526353.01151130814	54.889170863804
0	87766	1526437.002900125933	56.446220293272
0	87773	1526495.459360813161	8.458839818123
0	87780	1526606.332625916038	9.761056745715
0	87787	1526983.874499239011	37.996022659901
0	87794	1527039.97939937832	3.77692712578
0	87801	1527086.70378890353	32.774077631012
0	87808	1527281.229229749982	7.184269695909
0	87815	1527388.398362598934	53.364997943807
0	87822	1527516.290992876358	58.45882111211
0	87830	1527620.299393679808	2.38324237876
0	87971	1531014.197587779814	16.635444923014
0	87976	1531017.556138104483	3.358550324669
0	87983	1531111.608252711272	94.052114606789
0	87994	1531256.999084650252	145.39083193898
0	87999	1531277.841296458524	20.842211808272
0	88006	1531297.619030310647	19.777733852123
0	88011	1531303.386107205266	5.767076894619
0	88014	1531303.623743475421	0.237636270155
0	88021	1531362.76830783485	59.144564359429
0	88026	1531408.492399112287	45.724091277437
0	88031	1531462.167566841533	53.675167729246
0	88034	1531462.83250360953	0.664936767997
0	88041	1531540.703047794461	77.870544184931
0	88048	1531645.991534627902	105.28848683344
0	88053	1531689.028931736562	43.03739710866
0	88060	1531738.855911894385	49.826980157823
0	88065	1531748.059032609812	9.203120715427
0	88070	1531749.666583821235	1.607551211423
0	88075	1531766.644026066712	16.977442245477
0	88082	1531826.801147423457	60.157121356745
0	88087	1531853.113948863333	26.312801439876
0	88094	1531934.819517935228	47.467158522124
0	88101	1532069.328216404756	69.212153701837
0	88108	1532226.298526234881	20.474420843854
0	88115	1532283.959694411837	8.098911840317
0	88123	1532363.214649457243	49.015786259357
0	88134	1532581.355504729621	10.984455410269
0	88141	1532873.735497218293	55.71063574524
0	88152	1533009.09496656868	24.398805796775
0	88159	1533045.233222601375	27.578140055913
0	88166	1533246.316016965393	12.087002926322
0	88173	1533336.962003700761	51.582222088255
0	88180	1533399.008557602144	41.680892054787
0	88192	1533576.731220359076	43.037274718357
0	88200	1533696.952954189008	43.707745464052
0	88223	1534342.494879207383	34.907795508877
0	88230	1534419.273881262243	76.77900205486
0	88235	1534433.166964966102	13.893083703859
0	88240	1534454.85760466256	21.690639696458
0	88247	1534504.904634560646	29.092475063761
0	88254	1534508.139992203307	1.269569848649
0	88261	1534651.672871476003	22.798446665027
0	88268	1534722.062610938306	0.016672201668
0	88275	1534934.749297694475	63.641944879847
0	88282	1535215.406111578935	16.490571415004
0	88289	1535287.94873429653	19.064341814159
0	88296	1535386.965008873606	38.391560385825
0	88305	1535488.242789312196	27.132452278409
0	88310	1535497.017986613611	8.775197301415
0	88317	1535645.407560089347	15.484768135635
0	88324	1535702.721624032675	7.727278964056
0	88331	1535876.480059424356	3.045529360844
0	88338	1536116.07136948416	21.32999964644
0	88345	1536266.544231791994	3.034928958529
0	88352	1536343.210998779605	7.354198167104
0	88359	1536382.786538987735	10.011773317379
0	88368	1536769.469395606349	57.569906675837
0	88373	1536796.938904900943	27.469509294594
0	88382	1536955.046284323649	100.92271040388
0	88387	1536970.953321059733	15.907036736084
0	88394	1537014.553102821281	39.227511879227
0	88403	1537338.951317605082	173.62015621203
0	88408	1537347.955113840712	9.00379623563
0	88415	1537526.587205042935	1.396310159549
0	88422	1537703.931262415398	38.22792089822
0	88429	1537760.615091225783	16.874971606644
0	88436	1538014.936297641457	33.236280297025
0	88628	1541762.181510347286	19.181262044893
0	88633	1541808.009197758316	45.82768741103
0	88640	1541953.347805597226	145.33860783891
0	88645	1541983.30057929644	29.952773699214
0	88650	1542073.071910857412	89.771331560972
0	88655	1542133.696455590186	60.624544732774
0	88662	1542162.548069664671	28.851614074485
0	88671	1542219.714169421187	57.166099756516
0	88676	1542277.524585644275	57.810416223088
0	88683	1542346.641100100945	69.11651445667
0	88688	1542374.056228226062	27.415128125117
0	88695	1542467.444571602066	93.388343376004
0	88700	1542481.66844922723	14.223877625164
0	88705	1542512.960491809665	31.292042582435
0	88710	1542514.497728595329	1.537236785664
0	88715	1542525.182629614712	10.684901019383
0	88720	1542536.519804396162	11.33717478145
0	88727	1542983.286055062376	10.300983796762
0	88734	1543068.058539349858	65.807770611789
0	88741	1543267.946038377918	63.238659199444
0	88748	1543317.00678634379	26.231643629614
0	88757	1543527.108916320725	90.064587547781
0	88762	1543534.089295965106	6.980379644381
0	88769	1543940.905378030264	89.469219357104
0	88776	1544061.631063523478	110.80219216058
0	88785	1544338.380527689161	86.429055288137
0	88790	1544353.205070933647	14.824543244486
0	88797	1544551.264779309538	174.58832096817
0	88804	1544570.453018241895	3.600499078116
0	88811	1544736.546188356526	60.178746599928
0	88820	1544946.020001889502	72.39576316507
0	88825	1544980.964698573	34.944696683498
0	88832	1545191.863371262734	7.479943865913
0	88839	1545508.259329136969	32.085274617745
0	88848	1545596.568845682488	55.407964295334
0	88853	1545629.313177909117	32.744332226629
0	88936	1549172.761869896345	22.337410545442
0	88941	1549234.823665088458	62.061795192113
0	88946	1549264.308834659548	29.48516957109
0	88951	1549276.019048001877	11.710213342329
0	88956	1549335.288832115274	59.269784113397
0	88961	1549400.672983187194	65.38415107192
0	88966	1549424.709358708987	24.036375521793
0	88971	1549433.2005404832	8.491181774213
0	88976	1549571.773472874125	138.57293239092
0	88979	1549571.789513660343	0.016040786218
0	88986	1549594.069839881051	22.280326220708
0	88993	1549616.588730181097	22.518890300046
0	89000	1549645.331803546168	28.743073365071
0	89005	1549734.483012939766	89.151209393598
0	89016	1549850.125292452437	115.64227951267
0	89021	1549903.27493801748	53.149645565043
0	89026	1549939.881310473404	36.606372455924
0	89033	1549952.00305534715	12.121744873746
0	89040	1549958.867851151547	6.864795804397
0	89045	1549979.487812120925	20.619960969378
0	89050	1550008.433118736809	28.945306615884
0	89055	1550015.273281586502	6.840162849693
0	89060	1550016.551524307708	1.278242721206
0	89067	1550144.998426493568	128.44690218586
0	89072	1550155.253114998709	10.254688505141
0	89077	1550158.502121962919	3.24900696421
0	89082	1550191.082749143548	32.580627180629
0	89087	1550214.120866517762	23.038117374214
0	89092	1550228.774840565366	14.653974047604
0	89097	1550265.239094053525	36.464253488159
0	89102	1550288.680214392782	23.441120339257
0	89107	1550290.534751063163	1.854536670381
0	89112	1550389.039595766603	98.50484470344
0	89117	1550392.009723449711	2.970127683108
0	89124	1550501.812735774606	9.700077780526
0	89131	1550586.627866409399	8.562966657226
0	89138	1550728.43901425652	6.621998764649
0	89147	1550846.766197370882	76.486668397359
0	89152	1550850.014277423429	3.248080052547
0	89185	1552455.668702439055	57.850460441949
0	89259	1555263.646749608242	37.884101024633
0	89264	1555315.936383117251	52.289633509009
0	89271	1555351.802422175908	35.866039058657
0	89276	1555468.729213706542	116.92679153063
0	89283	1555554.183576796187	85.454363089645
0	89288	1555594.653391950564	40.469815154377
0	89293	1555626.096446181455	31.443054230891
0	89300	1555630.902827209319	4.806381027864
0	89305	1555637.53409716562	6.631269956301
0	89310	1555713.003222056302	75.469124890682
0	89315	1555779.789269893261	66.786047836959
0	89320	1555820.723799015013	40.934529121752
0	89325	1555830.879281876406	10.155482861393
0	89332	1555943.70663619176	112.82735431535
0	89339	1555974.278443628285	30.571807436525
0	89344	1555997.3949880675	23.116544439215
0	89351	1556007.599398422423	10.204410354923
0	89356	1556021.660838518265	14.061440095842
0	89361	1556033.707834004722	12.046995486457
0	89366	1556058.133064125496	24.425230120774
0	89371	1556066.480742331578	8.347678206082
0	89376	1556083.91005980939	17.429317477812
0	89383	1556123.534906270158	39.624846460768
0	89392	1556151.544664552552	28.009758282394
0	89397	1556159.323812924047	7.779148371495
0	89404	1556190.626574701683	31.302761777636
0	89411	1556322.883380380707	132.25680567902
0	89418	1556416.047140809767	93.16376042906
0	89425	1556515.679442476489	99.632301666722
0	89432	1556596.224246953605	80.544804477116
0	89435	1556596.685315220685	0.46106826708
0	89444	1556617.321811480614	20.636496259929
0	89449	1556625.843926479605	8.522114998991
0	89456	1556948.587754325687	56.601215100385
0	89465	1557202.150946497403	209.50818270232
0	89470	1557216.925318512166	14.774372014763
0	89477	1557446.821187261855	32.759690165715
0	89484	1557520.248758930983	7.827158666872
0	89491	1557554.241633024902	8.68406414293
0	89498	1557596.581927620452	3.258568025025
0	89505	1557857.009997083125	2.563995209214
0	89512	1558050.201360129622	8.113982341569
0	89521	1558150.92630170445	70.816865399495
0	89526	1558212.9353751625	62.00907345805
0	89537	1558249.381228831757	20.67775590675
0	89542	1558253.835209359952	4.453980528195
0	89547	1558302.771088863016	48.935879503064
0	89554	1558338.222186257894	29.077708728519
0	89561	1558446.650349996811	5.286418794789
0	89568	1558499.370590552899	28.93166100325
0	89575	1558656.398915322547	12.742652834065
0	89582	1558787.842960930658	17.724813248081
0	89593	1558930.441889260955	91.900332913024
0	89600	1558956.561535209371	26.119645948416
0	89605	1558981.250240001333	24.688704791962
0	89610	1558985.508540308675	4.258300307342
0	89617	1559079.753941021828	44.283941672194
0	89626	1559131.858624287468	14.113983039494
0	89633	1559196.991013533266	65.132389245798
0	89638	1559213.793222132077	16.802208598811
0	89645	1559394.061181211666	24.645218498983
0	89652	1559516.177245175213	53.600417002281
0	89659	1559588.381052829581	44.430837778455
0	89666	1559610.64360358798	20.472910179155
0	89673	1559677.801402683075	15.010027857564
0	89680	1559859.106313292521	4.508492977642
0	89687	1560038.836225785515	96.368527104147
0	89697	1560236.301029391587	91.115224729645
0	89872	1563459.159687968518	43.568273905592
0	89877	1563531.092495561895	71.932807593377
0	89883	1563607.17759494893	76.085099387035
0	89946	1564939.566613933445	5.715811340562
0	89951	1564951.077741428937	11.511127495492
0	89956	1564961.313912706721	10.236171277784
0	89964	1565109.831758904726	148.51784619801
0	89969	1565171.107455163584	61.275696258858
0	89976	1565341.344156790279	170.2367016267
0	89981	1565407.637207765645	66.293050975366
0	89986	1565462.722646824925	55.08543905928
0	89992	1565504.48492239095	41.762275566025
0	90340	1573314.139943325279	51.113780465626
0	90345	1573316.621908677717	2.481965352438
0	90352	1573378.999613413324	62.377704735607
0	90357	1573381.84368816293	2.844074749606
0	90362	1573461.576693575509	79.733005412579
0	90367	1573463.583103462121	2.006409886612
0	90372	1573467.465613766031	3.88251030391
0	90377	1573510.533020035286	43.067406269255
0	90386	1573557.483516536723	46.950496501437
0	90391	1573582.897321873635	25.413805336912
0	90396	1573600.988953841382	18.091631967747
0	90407	1573671.261947169636	70.272993328254
0	90414	1573733.861894456948	62.599947287312
0	90419	1573763.326892341885	29.464997884937
0	90424	1573788.676462711276	25.349570369391
0	90429	1573807.135985803769	18.459523092493
0	90434	1573811.845817369825	4.709831566056
0	90439	1573818.787448557164	6.941631187339
0	90450	1573885.571435837311	39.483259594415
0	90455	1573921.576570440043	36.005134602732
0	90460	1573951.687929146842	30.111358706799
0	90467	1574070.982028293716	10.468879386818
0	90476	1574290.286314238983	36.730554147021
0	90481	1574331.11374755687	40.827433317887
0	90488	1574431.018204330405	4.475939665046
0	90495	1574656.288533398705	29.463907202838
0	90504	1574881.676796037736	70.5137135583
0	90513	1575003.922240487874	122.24544445014
0	90518	1575009.12961090967	5.207370421796
0	90523	1575062.289670964933	53.160060055263
0	90530	1575289.887661122001	69.56307762709
0	90537	1575394.833800873757	29.160531250852
0	90544	1575477.963803903706	5.844932241888
0	90553	1575605.345358172926	67.298059137173
0	90560	1575664.445584706136	59.10022653321
0	90565	1575690.901092215599	26.455507509463
0	90572	1575851.76025520631	77.437949300756
0	90581	1576030.883646207382	36.577144093884
0	90586	1576041.271762211848	10.388116004466
0	90593	1576156.766417309695	97.209587725407
0	90600	1576188.073421244454	0.245112223124
0	90607	1576399.314880838764	87.622120358675
0	90614	1576483.406978949289	75.271523313601
0	90621	1576726.591836851462	154.0655297925
0	90628	1577201.133871539034	23.019476063241
0	90635	1577302.464653234182	8.297411009245
0	90642	1577509.417573808498	80.746460443026
0	90649	1577842.924521926206	48.426484456565
0	90656	1578145.972187014394	12.82204292983
0	90665	1578175.329710678835	24.411553956736
0	90670	1578180.512617940561	5.182907261726
0	90677	1578349.157236128025	20.55639464186
0	90684	1578393.851110589576	14.440996523041
0	90691	1578651.742847851609	118.10082484008
0	90700	1578686.851703496161	19.324108645813
0	90705	1578709.384354562815	22.532651066654
0	90714	1578846.770560561992	108.89671713685
0	90719	1578854.110290012362	7.33972945037
0	90726	1579092.336435663325	32.002078927768
0	90737	1579136.32079919202	39.073446425013
0	90742	1579168.964273645831	32.643474453811
0	90747	1579248.628532828904	79.664259183073
0	90756	1579463.714591620407	116.64114984112
0	90763	1579494.835226035691	31.120634415284
0	90768	1579499.898711228335	5.063485192644
0	90777	1579620.038021965809	101.35904837351
0	90782	1579684.298867991478	64.260846025669
0	90789	1579831.378201308458	8.392955234938
0	90796	1579871.809587999913	0.677347369581
0	90803	1579997.543054126797	46.644230519066
0	90810	1580194.723885945415	22.929215713663
0	90817	1580373.596023252468	2.787050079307
0	90824	1580465.796965175181	27.600785376905
0	90831	1580524.335282807276	2.212110304892
0	90838	1580693.274725504442	27.707691381374
0	90845	1580776.425253434952	48.656232799101
0	90854	1580873.179295458843	37.111715771088
0	90859	1581007.899274660931	134.71997920209
0	90868	1581210.364409273604	89.596999270503
0	90873	1581268.454719891944	58.09031061834
0	90880	1581445.011168278332	67.800752892475
0	90891	1581844.023757401884	176.19010222426
0	90896	1581850.482544003446	6.458786601562
0	90901	1581917.523732792621	67.041188789175
0	90910	1581973.275253116835	5.186808768703
0	90915	1582019.978948967943	46.703695851108
0	90922	1582125.813464294205	65.864995072325
0	90931	1582444.543286391065	47.799203843121
0	90936	1582469.393527470177	24.850241079112
0	90947	1582685.389626519223	157.29012377994
0	90952	1582711.198937229366	25.809310710143
0	90957	1582721.574740244326	10.37580301496
0	90966	1582945.115580542732	114.11226670842
0	90971	1582976.82167987548	31.706099332748
0	90978	1583077.533016714105	10.461530426708
0	90985	1583277.65299213639	12.960015643455
0	90992	1583305.816073811729	8.809063977879
0	90999	1583373.302276320538	4.879136737264
0	91006	1583649.386109919497	47.24259284585
0	91013	1584027.399088551382	47.181814902084
0	91020	1584192.426880188538	17.265985924674
0	91027	1584231.522803324325	6.637300557989
0	91034	1584264.703522603495	19.506750610894
0	91041	1584338.198053726103	27.377600542658
0	91048	1584343.364879290677	1.872719618856
0	91055	1584432.035271625629	1.051019272135
0	91062	1584518.08398355435	19.94991656142
0	91069	1584552.71832135322	8.292501107876
0	91080	1584962.395462967194	126.57300859301
0	91087	1584998.296005399652	35.900542432458
0	91092	1585009.061780841039	10.765775441387
0	91097	1585048.108549781302	39.046768940263
0	91104	1585169.197361338431	98.862420270255
0	91111	1585183.629920615578	1.964714621318
0	91118	1585334.388377366594	35.112899411597
0	91125	1585719.589913457593	184.17348552526
0	91132	1585843.229121527557	3.390537766151
0	91139	1586023.238904249663	67.340583080874
0	91146	1586356.360960998762	96.292850103153
0	91153	1586433.24666873853	23.299908404027
0	91160	1586684.756759995718	47.108641448131
0	91167	1586846.23903079461	8.753349904997
0	91174	1587096.477694090193	28.483020404346
0	91181	1587121.447289078095	0.44944271963
0	91191	1587286.571463896776	75.619044250731
0	91216	1588227.957197209224	38.987041585505
0	91223	1588370.324881771021	0.173922336787
0	91230	1588514.81012906012	1.425274727999
0	91241	1588718.931751469373	164.11266111651
0	91246	1588748.468884205547	29.537132736174
0	91255	1588774.629216077936	26.160331872389
0	91262	1588800.256295903841	25.627079825905
0	91267	1588802.196362993144	1.940067089303
0	91274	1588849.209748436543	47.013385443399
0	91279	1588854.870234169096	5.660485732553
0	91288	1589099.59340481288	56.187569724189
0	91293	1589141.173963048964	41.580558236084
0	91300	1589188.1457848648	4.630438395075
0	91307	1589219.783295661448	23.299680602345
0	91316	1589476.722224874846	42.099143989053
0	91321	1589479.098208204066	2.37598332922
0	91332	1589586.730413885604	101.41717039418
0	91337	1589590.892920081078	4.162506195474
0	91342	1589690.752778961156	99.859858880078
0	91349	1589772.300626649009	7.013309332687
0	91356	1589795.363351861634	11.413184712488
0	91365	1589914.250144162128	27.50695700288
0	91370	1589979.829910985262	65.579766823134
0	91377	1590179.124936187091	64.367811859245
0	91384	1590351.340532107067	8.835152504593
0	91391	1590379.519666903788	23.865013487502
0	91398	1590430.818820985723	10.46702652459
0	91405	1590513.435476583416	18.108599561318
0	91420	1590849.284758439266	299.89045071663
0	91425	1590905.791812509576	56.50705407031
0	91432	1590956.093521281452	50.301708771876
0	91437	1590964.392230866324	8.298709584872
0	91444	1590970.312960793707	5.920729927383
0	91451	1590999.123915162657	28.81095436895
0	91456	1591004.893652274182	5.769737111525
0	91461	1591037.531881329622	32.63822905544
0	91468	1591060.154329338056	2.323821453735
0	91475	1591231.434250045852	12.169424885627
0	91482	1591312.78821118899	74.838920665826
0	91493	1591421.892637752378	37.204010635012
0	91498	1591437.665030095632	15.772392343254
0	91503	1591513.763219807382	76.09818971175
0	91510	1591792.118460142514	47.050862164894
0	91517	1591914.077266798619	16.114115064597
0	91524	1592025.626466984562	50.683670709407
0	91531	1592056.945005950458	9.745689041406
0	91538	1592119.523981785138	22.404723004075
0	91547	1592272.128283940517	12.409870475997
0	91552	1592284.264185837881	12.135901897364
0	91559	1592293.598633529436	1.462572656417
0	91566	1592441.063368654894	22.430550854381
0	91573	1592628.155495967255	59.58804779606
0	91580	1592819.363473638231	55.955752518397
0	91678	1595716.230880051951	120.12172545797
0	91683	1595735.443967341829	19.213087289878
0	91690	1595757.495279835236	22.051312493407
0	91695	1595757.835562613653	0.340282778417
0	91700	1595764.7444226437	6.908860030047
0	91705	1595829.126396289442	64.381973645742
0	91712	1596068.329217041287	25.037871062204
0	91719	1596123.366659227727	45.902831363807
0	91728	1596216.280306018617	80.935170345535
0	91733	1596262.965129230415	46.684823211798
0	91740	1596565.486493522368	16.96152772556
0	91747	1596860.879989900333	58.128268827295
0	91754	1596889.918241582569	3.23076593592
0	91771	1597048.384868509363	129.24371655
0	91776	1597075.123569413931	26.738700904568
0	91781	1597107.164011973752	32.040442559821
0	91786	1597183.24515652851	76.081144554758
0	91791	1597219.303328832324	36.058172303814
0	91796	1597222.20828732111	2.904958488786
0	91803	1597527.868558204039	8.419231879602
0	91812	1597759.312110733249	50.80143098423
0	91823	1597827.094335642635	67.782224909386
0	91828	1597896.024019534766	68.929683892131
0	91835	1597938.231426482164	42.207406947398
0	91840	1597978.901740596602	40.670314114438
0	91845	1598030.347789551109	51.446048954507
0	91852	1598205.480715722935	1.571304699671
0	91861	1598380.804367948484	23.231576527815
0	91866	1598436.949363871453	56.144995922969
0	91873	1598646.370392023979	2.385598839916
0	91880	1598676.64359383249	28.217443624838
0	91887	1598804.414414826761	1.670095228641
0	91894	1598876.390486673881	1.397637282813
0	91901	1598882.378880904537	5.239814689672
0	91910	1599012.053862335442	113.39342181982
0	91915	1599045.007137821939	32.953275486497
0	91924	1599125.208112331967	18.682725435674