version 2
run Simulations-14-20191215-22:53:55-18910
attr configname Simulations
attr datetime 20191215-22:53:55
attr experiment Simulations
attr inifile omnetpp.ini
attr iterationvars "$seed=7, $0=8000"
attr iterationvarsf seed=7,8000-
attr measurement "$seed=7, $0=8000"
attr network WifiCelNetPassiveQueue
attr processid 18910
attr repetition 0
attr replication #0
attr resultdir results/Simulations/omnet
attr runnumber 14
attr seedset 7
itervar seed 7
param **.numJobs 14000
param *.OFFLOAD.deadline exponential(8000s)
param *.source.interArrivalTime exponential(120s)
param *.WIFI.serviceTime exponential(40s)
param *.CELL.serviceTime exponential(400s)
param *.OFFLOAD.switchToWi exponential(1524s)
param *.OFFLOAD.switchToCel exponential(3120s)
param *.LOCAL.serviceTime exponential(5s)
param *.REMOTE.serviceTime exponential(1s)

vector 0 WifiCelNetPassiveQueue.WIFI serviceTime:vector ETV
attr interpolationmode none
attr title "wifi Service, vector"
attr unit s
vector 1 WifiCelNetPassiveQueue.WIFI responseTime:vector ETV
attr interpolationmode none
attr title "Response Time, vector"
attr unit s
vector 2 WifiCelNetPassiveQueue.REMOTE serviceTime:vector ETV
attr interpolationmode none
attr title "wifi Service, vector"
attr unit s
vector 3 WifiCelNetPassiveQueue.REMOTE responseTime:vector ETV
attr interpolationmode none
attr title "Response Time, vector"
attr unit s
vector 4 WifiCelNetPassiveQueue.sink lifeTime:vector ETV
attr interpolationmode none
attr title "lifetime of arrived jobs, vector"
attr unit s
vector 5 WifiCelNetPassiveQueue.OFFLOAD queueLength:vector ETV
attr interpolationmode sample-hold
attr title "queue length, vector"
vector 6 WifiCelNetPassiveQueue.OFFLOAD storeCelTime:vector ETV
attr interpolationmode none
attr title "Time in Cell, vector"
attr unit s
vector 7 WifiCelNetPassiveQueue.CELL serviceTime:vector ETV
attr interpolationmode none
attr title "wifi Service, vector"
attr unit s
vector 8 WifiCelNetPassiveQueue.CELL responseTime:vector ETV
attr interpolationmode none
attr title "Response Time, vector"
attr unit s
vector 9 WifiCelNetPassiveQueue.OFFLOAD storeDeadline:vector ETV
attr interpolationmode none
attr title "deadline, vector"
attr unit s
vector 10 WifiCelNetPassiveQueue.LOCAL serviceTime:vector ETV
attr interpolationmode none
attr title "wifi Service, vector"
attr unit s
vector 11 WifiCelNetPassiveQueue.LOCAL responseTime:vector ETV
attr interpolationmode none
attr title "Response Time, vector"
attr unit s
vector 12 WifiCelNetPassiveQueue.OFFLOAD storeWifiTime:vector ETV
attr interpolationmode none
attr title "Time in Wifi, vector"
attr unit s
vector 13 WifiCelNetPassiveQueue.REMOTE queueLength:vector ETV
attr interpolationmode sample-hold
attr title "queue length, vector"
vector 14 WifiCelNetPassiveQueue.LOCAL queueLength:vector ETV
attr interpolationmode sample-hold
attr title "queue length, vector"
0	88063	1500001.534529753608	8.68406414293
0	88070	1500043.874824349158	3.258568025025
0	88077	1500304.302893811831	2.563995209214
0	88084	1500497.494256858328	8.113982341569
0	88093	1500598.219198433156	70.816865399495
0	88099	1500660.228271891206	62.00907345805
0	88202	1502810.520500125012	63.935481829789
0	88209	1502839.810459580508	29.289959455496
0	88216	1502907.383161574033	67.572701993525
0	88221	1502924.538654236801	17.155492662768
0	88226	1502975.483302231861	50.94464799506
0	88231	1503041.293412667656	65.810110435795
0	88236	1503069.210256519371	27.916843851715
0	88241	1503080.683495554066	11.473239034695
0	88248	1503152.066564275516	71.38306872145
0	88253	1503256.817863872103	104.75129959659
0	88260	1503308.486019362876	51.668155490773
0	88265	1503322.933100050463	14.447080687587
0	88270	1503328.765505365708	5.832405315245
0	88277	1503376.42060979335	47.655104427642
0	88282	1503424.774508744583	48.353898951233
0	88287	1503466.014961607115	41.240452862532
0	88294	1503526.933701852288	58.655091994653
0	88307	1503656.74207812103	95.000387713545
0	88312	1503678.684407430444	21.942329309414
0	88317	1503699.097330637997	20.412923207553
0	88322	1503723.083020215548	23.985689577551
0	88329	1504052.546525902238	35.178906995065
0	88340	1504278.030813989114	65.204370006034
0	88348	1504327.255764769763	49.224950780649
0	88429	1505965.273348277861	75.62467600696
0	88438	1506037.206155871238	71.932807593377
0	88443	1506065.939910800159	28.733754928921
0	88448	1506117.981140024089	52.04122922393
0	88456	1506223.313958238964	105.33281821488
0	88461	1506227.774381475222	4.460423236258
0	88466	1506315.274529353844	87.500147878622
0	88471	1506326.880656856673	11.606127502829
0	88474	1506327.199354549773	0.3186976931
0	88483	1506351.769461775731	15.095247835893
0	88490	1506444.437954544167	43.201930935009
0	88497	1506507.16779149196	57.289401257671
0	88504	1506596.771686601108	12.055699281108
0	88513	1506796.501951424761	66.325087851626
0	88518	1506804.821679372905	8.319727948144
0	88525	1506903.299604765492	13.465284036282
0	88532	1507037.634271631816	11.511127495492
0	88541	1507110.930586907758	49.181028169267
0	88546	1507313.214589558412	202.28400265065
0	88553	1507708.248312792553	170.2367016267
0	88560	1508099.887345921547	66.293050975366
0	88567	1508206.867544238254	2.509366589833
0	88574	1508432.415951130034	62.801456303773
0	88617	1510410.661544951593	42.586714445896
0	88622	1510426.039976556139	15.378431604546
0	88627	1510480.717138929933	54.677162373794
0	88634	1510558.294670757645	77.577531827712
0	88639	1510573.761686000643	15.467015242998
0	88644	1510581.234383038387	7.472697037744
0	88651	1510597.170658720553	15.936275682166
0	88656	1510649.573100831905	52.402442111352
0	88661	1510672.671261881003	23.098161049098
0	88668	1510729.320853111651	56.649591230648
0	88673	1510766.400444090582	37.079590978931
0	88678	1510824.488258725436	58.087814634854
0	88683	1510848.017136650633	23.528877925197
0	88690	1510870.903423990539	22.886287339906
0	88695	1510935.208303444046	64.304879453507
0	88700	1510937.520911894816	2.31260845077
0	88705	1510970.321463234654	32.800551339838
0	88710	1510981.941447088723	11.619983854069
0	88717	1511121.06911832409	38.271687785188
0	88780	1512546.810128102597	44.011169147568
0	88783	1512548.146992872272	1.336864769675
0	88790	1512553.383491150354	5.236498278082
0	88795	1512573.008363114768	19.624871964414
0	88801	1512640.030995646688	67.02263253192
0	88808	1512675.024269669168	34.99327402248
0	88815	1512727.187027780076	52.162758110908
0	88820	1512766.351939267509	39.164911487433
0	88825	1512867.23023918773	100.87829992022
0	88830	1512868.273630619272	1.043391431542
0	88835	1512877.204676530666	8.931045911394
0	88840	1512881.689911867281	4.485235336615
0	88847	1512888.50685711629	6.816945249009
0	88854	1512997.581687553415	109.07483043713
0	88859	1513002.696840052607	5.115152499192
0	88866	1513094.90863118151	92.211791128903
0	88871	1513132.233513857473	37.324882675963
0	88880	1513192.807375551798	60.573861694325
0	88887	1513206.424056908791	13.616681356993
0	88892	1513228.966572786586	22.542515877795
0	88897	1513301.54450286671	72.577930080124
0	88902	1513315.065718668562	13.521215801852
0	88911	1513468.605985007729	49.404414720062
0	88916	1513496.053647100738	27.447662093009
0	88924	1513586.552903600731	53.965211038208
0	88934	1513946.934513950222	84.113935352688
0	88939	1513998.048294415848	51.113780465626
0	88948	1514316.203302434204	36.706951250285
0	88953	1514324.589474359289	8.386171925085
0	88960	1514553.808366860633	79.733005412579
0	88971	1514626.740799633078	21.953589395689
0	88976	1514642.89742705382	16.156627420742
0	88981	1514647.114153757181	4.216726703361
0	88988	1514779.540931847726	25.413805336912
0	88995	1514817.247978161514	0.412883577531
0	89004	1514883.715294276878	12.605303789654
0	89011	1514946.31524156419	62.599947287312
0	89016	1514975.780239449127	29.464997884937
0	89023	1515075.371495486135	9.907000729628
0	89030	1515146.223037430735	4.709831566056
0	89041	1515249.937886869573	67.112979715474
0	89046	1515308.842459039518	58.904572169945
0	89051	1515344.84759364225	36.005134602732
0	89058	1515397.998761345479	52.27519333994
0	89065	1515440.59093314271	4.533289016775
0	89072	1515513.01217585797	45.547893571581
0	89079	1515600.955234996692	23.299290269239
0	89088	1515752.24830682547	52.110062144356
0	89093	1515773.168303642617	20.919996817147
0	89100	1515912.11508135285	14.21056139303
0	89107	1516112.123049489146	2.677388854427
0	89114	1516481.38936440693	5.207370421796
0	89121	1516584.19827077651	23.887814154737
0	89128	1516720.042569795512	0.251933007949
0	89135	1516952.990867847878	24.510998179046
0	89146	1517072.973479015015	57.012015593626
0	89151	1517087.513466373554	14.539987358539
0	89156	1517140.346442770911	52.832976397357
0	89163	1517286.740939133381	21.259429315903
0	89170	1517462.801786178395	117.95375383253
0	89177	1517587.490059257704	10.32817900957
0	89186	1517744.615792082926	57.722479553139
0	89191	1517803.742699139479	59.126907056553
0	89200	1517872.27212097897	25.942980998743
0	89205	1517879.001346567538	6.729225588568
0	89212	1517979.781621391297	36.274449586098
0	89219	1518178.787764337604	9.466022591601
0	89226	1518640.762096770496	9.243765646999
0	89235	1518736.61198338838	36.035224075159
0	89240	1518750.641450727776	14.029467339396
0	89247	1519095.155254435528	3.859337990404
0	89258	1519314.184787495979	77.609417681159
0	89263	1519329.910044274522	15.725256778543
0	89272	1519446.827426851904	116.91738257738
0	89279	1519498.238063166901	51.410636314997
0	89286	1519542.866587113175	44.628523946274
0	89291	1519549.297118847076	6.430531733901
0	89296	1519566.315336638107	17.018217791031
0	89303	1519873.916126827391	1.227368241332
0	89310	1520020.181305533604	79.894593747582
0	89322	1520372.184973321305	9.331066786333
0	89333	1520396.175906373921	1.042679533561
0	89342	1520694.601809259616	79.664259183073
0	89349	1520811.242959100733	116.64114984112
0	89354	1520842.363593516017	31.120634415284
0	89361	1520875.808877005548	5.063485192644
0	89370	1521014.23414963176	101.35904837351
0	89375	1521078.494995657429	64.260846025669
0	89382	1521225.574328974409	8.392955234938
0	89389	1521266.005715665864	0.677347369581
0	89396	1521391.739181792748	46.644230519066
0	89403	1521588.920013611366	22.929215713663
0	89410	1521767.792150918419	2.787050079307
0	89417	1521859.993092841132	27.600785376905
0	89424	1521918.531410473227	2.212110304892
0	89431	1522087.470853170393	27.707691381374
0	89438	1522170.621381100903	48.656232799101
0	89447	1522267.375423124794	37.111715771088
0	89452	1522402.095402326882	134.71997920209
0	89461	1522604.560536939555	89.596999270503
0	89466	1522662.650847557895	58.09031061834
0	89474	1522839.207295944283	67.800752892475
0	89525	1524509.948335979728	25.809310710143
0	89530	1524520.324138994688	10.37580301496
0	89535	1524528.520310239579	8.196171244891
0	89540	1524599.013529812384	70.493219572805
0	89545	1524630.719629145132	31.706099332748
0	89552	1524753.721932022467	10.461530426708
0	89559	1524953.841907444752	12.960015643455
0	89566	1524982.004989120091	8.809063977879
0	89573	1525049.4911916289	4.879136737264
0	89580	1525325.575025227859	47.24259284585
0	89587	1525703.588003859744	47.181814902084
0	89594	1525868.6157954969	17.265985924674
0	89601	1525907.711718632687	6.637300557989
0	89608	1525940.892437911857	19.506750610894
0	89615	1526014.386969034465	27.377600542658
0	89622	1526019.553794599039	1.872719618856
0	89629	1526108.224186933991	1.051019272135
0	89636	1526194.272898862712	19.94991656142
0	89643	1526228.907236661582	8.292501107876
0	89654	1526638.584378275556	126.57300859301
0	89661	1526674.484920708014	35.900542432458
0	89666	1526685.250696149401	10.765775441387
0	89671	1526724.297465089664	39.046768940263
0	89678	1526845.386276646793	98.862420270255
0	89685	1526859.81883592394	1.964714621318
0	89692	1527010.577292674956	35.112899411597
0	89699	1527395.778828765955	184.17348552526
0	89706	1527519.418036835919	3.390537766151
0	89713	1527699.427819558025	67.340583080874
0	89720	1528032.549876307124	96.292850103153
0	89727	1528109.435584046892	23.299908404027
0	89800	1530725.235004288391	28.162846261819
0	89805	1530729.79746640641	4.562462118019
0	89810	1530739.321608627457	9.524142221047
0	89815	1530754.41373809828	15.092129470823
0	89820	1530756.353805187583	1.940067089303
0	89825	1530803.367190630982	47.013385443399
0	89832	1530962.456407321709	5.660485732553
0	89841	1531080.718953397697	56.187569724189
0	89846	1531122.299511633781	41.580558236084
0	89853	1531169.271333449617	4.630438395075
0	89860	1531200.908844246265	23.299680602345
0	89869	1531457.847773459663	42.099143989053
0	89874	1531460.223756788883	2.37598332922
0	89885	1531567.855962470421	101.41717039418
0	89890	1531572.018468665895	4.162506195474
0	89895	1531671.878327545973	99.859858880078
0	89902	1531753.426175233826	7.013309332687
0	89909	1531776.488900446451	11.413184712488
0	89918	1531895.375692746945	27.50695700288
0	89923	1531960.955459570079	65.579766823134
0	89930	1532160.250484771908	64.367811859245
0	89937	1532332.466080691884	8.835152504593
0	89944	1532360.645215488605	23.865013487502
0	89951	1532411.94436957054	10.46702652459
0	89958	1532494.561025168233	18.108599561318
0	89973	1532830.410307024083	299.89045071663
0	89978	1532886.917361094393	56.50705407031
0	89985	1532937.219069866269	50.301708771876
0	89990	1532945.517779451141	8.298709584872
0	89997	1532951.438509378524	5.920729927383
0	90004	1532980.249463747474	28.81095436895
0	90009	1532986.019200858999	5.769737111525
0	90014	1533018.657429914439	32.63822905544
0	90021	1533041.279877922873	2.323821453735
0	90028	1533212.559798630669	12.169424885627
0	90035	1533293.913759773807	74.838920665826
0	90046	1533403.018186337195	37.204010635012
0	90051	1533418.790578680449	15.772392343254
0	90056	1533494.888768392199	76.09818971175
0	90135	1535577.003213081736	0.336183457464
0	90140	1535615.428238637114	38.425025555378
0	90147	1535641.338128339483	25.909889702369
0	90152	1535686.173027681838	44.834899342355
0	90157	1535708.363806865355	22.190779183517
0	90164	1535790.246623396641	81.882816531286
0	90171	1535883.231573706309	92.984950309668
0	90176	1535939.973088221825	56.741514515516
0	90181	1535960.723404027102	20.750315805277
0	90186	1535980.643983237023	19.920579209921
0	90191	1536059.639474380345	78.995491143322
0	90196	1536067.089930415583	7.450456035238
0	90203	1536705.831261551608	91.396765048984
0	90210	1536834.607671978978	31.051612778594
0	90217	1537032.858908732971	93.402524225522
0	90228	1537692.618277907758	120.12172545797
0	90235	1537714.669590401165	22.051312493407
0	90240	1537715.009873179582	0.340282778417
0	90245	1537721.918733209629	6.908860030047
0	90252	1538035.351486533209	20.576272540031
0	90259	1538272.546174886208	64.625039955804
0	90266	1538300.805464375052	17.770716258037
0	90273	1538535.486214618946	114.74297241051
0	90280	1538673.777610732001	10.22885748696
0	90287	1538810.755237048705	7.15201416827
0	90294	1538874.166315943249	19.678509886133
0	90305	1539066.23035671572	37.357744176719
0	90308	1539066.39028550933	0.15992879361
0	90315	1539078.231171636875	11.840886127545
0	90322	1539466.214071292962	26.738700904568
0	90330	1539640.063955545843	50.746884446247
0	90455	1542727.620886777172	66.66144196345
0	90460	1542747.172459387824	19.551572610652
0	90466	1542797.672150257278	50.499690869454
0	90471	1542817.148312003856	19.476161746578
0	90476	1542920.145485426056	102.9971734222
0	90481	1542931.286563378066	11.14107795201
0	90486	1542950.464333634698	19.177770256632
0	90491	1543049.661399775479	99.197066140781
0	90496	1543082.39357571377	32.732175938291
0	90501	1543102.234795335975	19.841219622205
0	90506	1543139.713755696552	37.478960360577
0	90511	1543189.432792265741	49.719036569189
0	90516	1543199.062309884451	9.62951761871
0	90521	1543245.343381571936	46.281071687485
0	90526	1543251.862077796136	6.5186962242
0	90533	1543438.910304295827	18.219195553606
0	90542	1543664.429902828627	99.206954691635
0	90547	1543695.260879375856	30.830976547229
0	90554	1543786.402688609159	90.551181505479
0	90561	1543926.210317049521	14.68736139493
0	90568	1543984.675798263672	10.342826224747
0	90575	1544049.142924654445	9.238683576545
0	90586	1544175.412828755067	46.556616943365
0	90591	1544179.536981846679	4.124153091612
0	90598	1544251.556358121119	72.01937627444
0	90607	1544359.032817938364	107.47645981725
0	90616	1544388.493177561218	29.460359622854
0	90621	1544396.740332134337	8.247154573119
0	90626	1544398.489649269843	1.749317135506
0	90629	1544399.673694897703	1.18404562786
0	90638	1544827.688276691969	7.479294012996
0	90645	1545122.586543350973	2.113292245112
0	90652	1545435.992917495137	53.099716096897
0	90659	1545472.628805605032	20.104841055545
0	90666	1545494.90000487795	15.887991663523
0	90705	1546575.065683118096	3.986513730191
0	90710	1546580.536404437011	5.470721318915
0	90715	1546583.405585896783	2.869181459772
0	90720	1546664.460577999044	81.054992102261
0	90725	1546670.380983968465	5.920405969421
0	90730	1546673.276479393166	2.895495424701
0	90737	1546689.241802131547	15.965322738381
0	90744	1546728.82901122014	39.587209088593
0	90749	1546734.231496761936	5.402485541796
0	90754	1546744.838360647773	10.606863885837
0	90761	1546896.462249306186	151.62388865841
0	90766	1546935.913926485964	39.451677179778
0	90773	1547245.848033392765	47.482661321986
0	90799	1548208.584052969054	11.025283684849
0	90810	1548339.257412732415	27.036995274641
0	90819	1548450.797782193094	61.964128398761
0	90826	1548504.386466717786	53.588684524692
0	90831	1548550.341573594551	45.955106876765
0	90838	1548706.097812558092	51.286229815066
0	90847	1548789.786847397138	67.069767390524
0	90852	1548795.621544131515	5.834696734377
0	90859	1548850.139429037948	43.372151465757
0	90870	1548931.236421501959	40.121348243936
0	90875	1548957.006532753248	25.770111251289
0	90880	1548990.535635455966	33.529102702718
0	90887	1549149.785880821376	86.075283779155
0	90896	1549346.912884292231	2.444114828901
0	90901	1549366.070376738724	19.157492446493
0	90908	1549593.646277532831	15.312513741239
0	90917	1549699.63803951762	59.407593601035
0	90922	1549753.622056781455	53.984017263835
0	90929	1549878.78073916145	18.84086177661
0	90936	1550011.844431017958	45.40359304994
0	90943	1550043.563517634022	5.641926118799
0	90950	1550164.751274126037	20.910571742497
0	90957	1550224.356794044556	2.666259098849
0	90964	1550326.491683957144	39.94924310319
0	90971	1550367.432989521327	15.396149253824
0	90978	1551060.587455065124	43.250917680781
0	90985	1551496.865038071818	15.578678475658
0	90992	1551633.65638959715	50.535172324713
0	90999	1551653.691930065763	17.913923020412
0	91006	1551918.62866088234	40.046607106051
0	91013	1551937.573356517168	17.032205935522
0	91022	1552096.809745446782	25.395971132839
0	91027	1552113.743682420561	16.933936973779
0	91034	1552302.816841264332	84.071013088585
0	91041	1552400.064570072114	54.620907739234
0	91048	1552568.29397315754	49.191757367928
0	91055	1552608.577810106534	2.550406052073
0	91064	1552765.718628245011	81.344058900935
0	91069	1552799.846602109444	34.127973864433
0	91076	1553048.340208981692	4.246205428642
0	91084	1553138.175634181285	12.483590195093
0	91188	1556121.474579634442	110.19336819045
0	91193	1556143.778518051292	22.30393841685
0	91198	1556165.416092833811	21.637574782519
0	91205	1556251.44924498485	86.033152151039
0	91210	1556296.353436841072	44.904191856222
0	91215	1556337.406276311028	41.052839469956
0	91222	1556373.786980266437	36.380703955409
0	91227	1556376.497603587767	2.71062332133
0	91232	1556472.553056595949	96.055453008182
0	91237	1556503.960443182674	31.407386586725
0	91244	1556545.940114415066	41.979671232392
0	91251	1556578.155601011435	32.215486596369
0	91256	1556586.254724065399	8.099123053964
0	91261	1556593.659131843968	7.404407778569
0	91266	1556612.55246001322	18.893328169252
0	91273	1556626.480158654287	13.927698641067
0	91278	1556667.558873804456	41.078715150169
0	91285	1556680.550023141665	10.671838019316
0	91292	1556735.81444443722	16.939352091873
0	91299	1556751.955884213066	4.273638185336
0	91306	1556815.953367265463	8.880639530641
0	91313	1556958.910158572707	8.805089678479
0	91320	1556970.250343453953	7.351178168968
0	91333	1557083.5519617837	60.084010125733
0	91338	1557127.972905810104	44.420944026404
0	91343	1557133.610397513622	5.637491703518
0	91346	1557136.431462730632	2.82106521701
0	91355	1557350.244772198127	25.923844536226
0	91362	1557414.051900617602	11.394510289974
0	91371	1557489.560996027536	29.28105287847
0	91374	1557490.397236275675	0.836240248139
0	91385	1557968.103772453612	101.15261480021
0	91390	1557969.469190468664	1.365418015052
0	91397	1558158.437246405228	10.33539308296
0	91404	1558257.161348265977	43.690125068196
0	91411	1558515.523756520742	32.085470158294
0	91418	1558589.83449220047	19.743469478123
0	91425	1558639.595093737841	46.001650665868
0	91432	1558913.101589836535	4.832396130506
0	91443	1559013.922838144471	87.008451019894
0	91450	1559039.948667405569	26.025829261098
0	91455	1559040.950257665309	1.00159025974
0	91460	1559055.470903803829	14.52064613852
0	91501	1560817.51723084353	64.697357941482
0	91506	1560823.981797127478	6.464566283948
0	91517	1560926.108009343173	102.12621221569
0	91526	1561007.195123975036	81.087114631863
0	91531	1561033.121497442999	25.926373467963
0	91536	1561052.697076744627	19.575579301628
0	91541	1561056.221705882231	3.524629137604
0	91546	1561098.275000277126	42.053294394895
0	91555	1561159.163465806523	60.888465529397
0	91560	1561261.862943729975	102.69947792345
0	91565	1561295.619902095158	33.756958365183
0	91570	1561320.998172576957	25.378270481799
0	91579	1561385.802856577334	64.804684000377
0	91586	1561459.263960264168	73.461103686834
0	91591	1561468.464224216422	9.200263952254
0	91596	1561492.854701517294	24.390477300872
0	91603	1561570.51035462655	77.655653109256
0	91612	1561697.45509702754	126.94474240099
0	91617	1561732.908302587219	35.453205559679
0	91622	1561786.552410399476	53.644107812257
0	91631	1561932.302090520426	30.414709465783
0	91636	1561954.662295974783	22.360205454357
0	91643	1561991.961013007204	6.615547684159
0	91656	1562171.024460376838	24.745835743164
0	91663	1562232.870854239742	61.846393862904
0	91668	1562299.950247725674	67.079393485932
0	91673	1562361.616190961646	61.665943235972
0	91678	1562388.805196686995	27.189005725349
0	91691	1562728.898841836223	157.30217752513
0	91696	1562747.640891038954	18.742049202731
0	91701	1562802.798215834306	55.157324795352
0	91706	1562822.172419826469	19.374203992163
0	91823	1565716.808419239404	10.486384664395
0	91826	1565717.831297492293	1.022878252889
0	91833	1565794.931303140269	77.100005647976
0	91838	1565816.739242701095	21.807939560826
0	91843	1565818.437933039183	1.698690338088
0	91849	1565837.32151747246	18.883584433277
0	91854	1565893.820522130396	56.499004657936
0	91861	1565919.655069120415	25.834546990019
0	91866	1566024.616606972267	104.96153785185
0	91869	1566025.117677657971	0.501070685704
0	91876	1566027.947770928588	2.830093270617
0	91883	1566084.647278172256	56.699507243668
0	91888	1566119.214004925117	34.566726752861
0	91893	1566153.214206361041	34.000201435924
0	91898	1566166.135729822128	12.921523461087
0	91905	1566212.102435683304	45.966705861176
0	91910	1566212.999713282464	0.89727759916
0	91915	1566238.124557901206	25.124844618742
0	91922	1566307.21286360429	69.088305703084
0	91927	1566324.905126503498	17.692262899208
0	91932	1566328.424620038838	3.51949353534
0	91937	1566334.646355694213	6.221735655375
0	91944	1566377.002262346104	3.358819563628
0	91951	1566454.149572149731	16.545523594267
0	91958	1566726.021972360333	57.005567366458
0	91965	1566821.970177010885	9.915979036599
0	91972	1566983.728978176685	53.39549119534
0	91979	1567040.444475634266	16.15824487395
0	91988	1567382.820715416562	56.020549404552
0	91995	1567389.881313737426	7.060598320864
0	92002	1567436.335954101154	46.454640363728
0	92007	1567438.712257271371	2.376303170217
0	92014	1567519.887879766472	6.087172211192
0	92021	1567916.024100167505	31.337362806435
0	92030	1568017.752800061429	16.794033602209
0	92037	1568025.633484740761	7.880684679332
0	92044	1568050.260220148514	24.626735407753
0	92047	1568050.764700555682	0.504480407168
0	92056	1568169.238881646352	7.455571039101
0	92065	1568256.946660513129	78.705979947408
0	92070	1568304.467269656358	47.520609143229
0	92079	1568535.884417615519	16.91543439227
0	92084	1568541.177668510783	5.293250895264
0	92091	1568722.141917803138	8.252458611738
0	92098	1568835.550393944731	8.927011660964
0	92107	1569048.491288537504	23.748267854109
0	92116	1569083.024309784041	34.533021246537
0	92121	1569114.820574562048	31.796264778007
0	92126	1569118.270611555814	3.450036993766
0	92133	1569295.254486470506	34.241291283055
0	92140	1569343.78823048789	45.106914596596
0	92147	1569400.836695601461	3.552415688287
0	92154	1569580.855100215781	60.431624504903
0	92163	1569701.28521630117	12.859661678113
0	92168	1569793.530483132379	92.245266831209
0	92177	1569827.539067765175	23.922232453232
0	92184	1569927.440407122141	99.901339356966
0	92189	1570027.901812120205	100.46140499806
0	92196	1570118.841072364425	8.587268821051
0	92205	1570571.427671095799	50.225540084801
0	92212	1570785.402755010607	20.673350742655
0	92219	1571005.779921162559	1.802579001357
0	92230	1571156.630279621815	70.655615282533
0	92235	1571165.357716908591	8.727437286776
0	92240	1571173.756751238479	8.399034329888
0	92247	1571362.166501499775	40.064858118967
0	92254	1571587.55700300243	42.81700030391
0	92261	1571941.974981525359	16.842615234032
0	92268	1571967.9315434997	4.642569202459
0	92279	1572061.134978361724	56.576907553299
0	92284	1572112.054639437764	50.91966107604
0	92289	1572159.732677465397	47.678038027633
0	92296	1572441.176988832311	23.194124989501
0	92305	1572652.664335421371	85.269783850142
0	92310	1572665.557824646721	12.89348922535
0	92317	1572767.61980373967	101.20586574863
0	92326	1572885.242503347104	32.373391634894
0	92333	1572905.588831726013	20.346328378909
0	92340	1572937.197767309518	31.608935583505
0	92345	1572943.408150872095	6.210383562577
0	92352	1573139.912694509004	19.864758726175
0	92361	1573205.16967540967	35.66075752228
0	92366	1573222.418855891526	17.249180481856
0	92373	1573263.413108153118	35.037264075307
0	92380	1573505.697140819861	52.275544174656
0	92387	1573793.90335857416	31.953701872143
0	92394	1573818.633530606154	21.190050062897
0	92401	1574004.162231842588	32.467990577319
0	92408	1574104.751915863164	28.694511859526
0	92415	1574335.821219703472	41.854512040009
0	92422	1574537.461911162843	58.681038773068
0	92429	1574578.536351647514	11.130665974312
0	92438	1574835.175259140108	72.139411473217
0	92445	1574864.655035435226	29.479776295118
0	92450	1574898.640660755447	33.985625320221
0	92459	1575014.955794569365	48.422177695174
0	92466	1575109.396484101937	94.440689532572
0	92471	1575117.830406418577	8.43392231664
0	92478	1575199.222275235355	7.02129869731
0	92485	1575262.296236196477	57.706688739255
0	92492	1575527.385609970924	108.36091285106
0	92499	1576053.238380576786	69.54050605294
0	92539	1577464.347780276569	12.409744977419
0	92546	1577536.063755904413	71.715975627844
0	92551	1577536.841925458252	0.778169553839
0	92556	1577543.244213994987	6.402288536735
0	92563	1577725.372879544925	6.074511802284
0	92570	1577849.079703818407	26.123113696127
0	92577	1577873.88520033984	1.258833816181
0	92584	1577913.564003487802	35.42320238147
0	92591	1578007.438050817178	56.759044946941
0	92598	1578138.000088867972	2.803496396169
0	92605	1578210.633073181148	13.202129247175
0	92612	1578292.537703826384	2.252369607928
0	92619	1578353.856354698567	44.31210088321
0	92674	1579816.692725724646	53.871863854205
0	92681	1579837.809357640827	21.116631916181
0	92686	1579896.777730474317	58.96837283349
0	92691	1579906.134558037738	9.356827563421
0	92698	1579953.925230840314	47.790672802576
0	92703	1579959.300313143619	5.375082303305
0	92708	1580049.268679851563	89.968366707944
0	92713	1580189.970241050585	140.70156119902
0	92716	1580190.158529384986	0.188288334401
0	92723	1580224.339404042853	34.180874657867
0	92730	1580241.483224722893	17.14382068004
0	92735	1580267.919549030836	26.436324307943
0	92740	1580278.159876973537	10.240327942701
0	92747	1580323.872991849687	45.71311487615
0	92752	1580345.584965418757	21.71197356907
0	92759	1580388.859228339044	43.274262920287
0	92764	1580404.318249771565	15.459021432521
0	92771	1580481.618270752204	77.300020980639
0	92776	1580491.993906398964	10.37563564676
0	92783	1580699.676816076757	34.067231189326
0	92790	1580942.33986229238	10.833551078982
0	92799	1581436.401259498411	31.873213582724
0	92804	1581477.099602996038	40.698343497627
0	92813	1581654.904135022177	131.89634550313
0	92818	1581675.268124163534	20.363989141357
0	92825	1581920.42774231698	4.918312766772
0	92849	1582806.232660030887	25.091302698841
0	92856	1582838.12018516517	31.887525134283
0	92861	1582866.515620297371	28.395435132201
0	92866	1582895.961225169789	29.445604872418
0	92871	1582905.351308135199	9.39008296541
0	92876	1582909.648877666639	4.29756953144
0	92883	1583065.696001259423	34.831124025025
0	92890	1583480.641307573275	37.547700295296
0	92903	1583581.500647970075	57.549276915185
0	92912	1583617.591590293332	36.090942323257
0	92917	1583705.823427731299	88.231837437967
0	92922	1583731.259931775038	25.436504043739
0	92927	1583786.777692481334	55.517760706296
0	92936	1583826.26194338227	39.484250900936
0	92943	1583875.487349512292	49.225406130022
0	92948	1583903.950400847658	28.463051335366
0	92953	1583939.147100459151	35.196699611493
0	92960	1584019.392436860446	60.646697452997
0	92967	1584191.770200687678	71.619963157215
0	92974	1584259.320080135204	33.465493920102
0	92983	1584329.681559245879	50.65587783755
0	92990	1584385.14167872709	55.460119481211
0	92995	1584386.335905551928	1.194226824838
0	93002	1584630.005278726285	58.572273111967
0	93009	1584647.299656405019	16.0808500344
0	93016	1584798.475449717077	38.930457869328
0	93023	1584916.283168089398	4.098068411196
0	93030	1585008.230219184686	14.366157889406
0	93037	1585047.400244252232	25.16562103483