version 2
run Simulations-39-20191218-11:09:19-65753
attr configname Simulations
attr datetime 20191218-11:09:19
attr experiment Simulations
attr inifile omnetpp.ini
attr iterationvars "$seed=25, $0=7200"
attr iterationvarsf seed=25,7200-
attr measurement "$seed=25, $0=7200"
attr network WifiCelNetPassiveQueue
attr processid 65753
attr repetition 0
attr replication #0
attr resultdir results/Simulations/omnet
attr runnumber 39
attr seedset 25
itervar seed 25
param **.numJobs 10000
param *.OFFLOAD.deadline exponential(7200s)
param *.source.interArrivalTime exponential(120s)
param *.WIFI.serviceTime exponential(40s)
param *.CELL.serviceTime exponential(400s)
param *.OFFLOAD.switchToWi exponential(1524s)
param *.OFFLOAD.switchToCel exponential(3120s)
param *.LOCAL.serviceTime exponential(5s)
param *.REMOTE.serviceTime exponential(1s)

vector 0 WifiCelNetPassiveQueue.WIFI serviceTime:vector ETV
attr interpolationmode none
attr title "wifi Service, vector"
attr unit s
vector 1 WifiCelNetPassiveQueue.WIFI responseTime:vector ETV
attr interpolationmode none
attr title "Response Time, vector"
attr unit s
vector 2 WifiCelNetPassiveQueue.REMOTE serviceTime:vector ETV
attr interpolationmode none
attr title "wifi Service, vector"
attr unit s
vector 3 WifiCelNetPassiveQueue.REMOTE responseTime:vector ETV
attr interpolationmode none
attr title "Response Time, vector"
attr unit s
vector 4 WifiCelNetPassiveQueue.sink lifeTime:vector ETV
attr interpolationmode none
attr title "lifetime of arrived jobs, vector"
attr unit s
vector 5 WifiCelNetPassiveQueue.OFFLOAD queueLength:vector ETV
attr interpolationmode sample-hold
attr title "queue length, vector"
vector 6 WifiCelNetPassiveQueue.REMOTE queueLength:vector ETV
attr interpolationmode sample-hold
attr title "queue length, vector"
vector 7 WifiCelNetPassiveQueue.OFFLOAD storeCelTime:vector ETV
attr interpolationmode none
attr title "Time in Cell, vector"
attr unit s
vector 8 WifiCelNetPassiveQueue.OFFLOAD storeDeadline:vector ETV
attr interpolationmode none
attr title "deadline, vector"
attr unit s
vector 9 WifiCelNetPassiveQueue.CELL serviceTime:vector ETV
attr interpolationmode none
attr title "wifi Service, vector"
attr unit s
vector 10 WifiCelNetPassiveQueue.CELL responseTime:vector ETV
attr interpolationmode none
attr title "Response Time, vector"
attr unit s
vector 11 WifiCelNetPassiveQueue.OFFLOAD storeWifiTime:vector ETV
attr interpolationmode none
attr title "Time in Wifi, vector"
attr unit s
vector 12 WifiCelNetPassiveQueue.LOCAL serviceTime:vector ETV
attr interpolationmode none
attr title "wifi Service, vector"
attr unit s
vector 13 WifiCelNetPassiveQueue.LOCAL responseTime:vector ETV
attr interpolationmode none
attr title "Response Time, vector"
attr unit s
vector 14 WifiCelNetPassiveQueue.LOCAL queueLength:vector ETV
attr interpolationmode sample-hold
attr title "queue length, vector"
0	177160	3000023.428772134287	41.903471600792
0	177169	3000152.357798496366	121.54911742443
0	177174	3000182.434781793215	30.076983296849
0	177181	3000233.246624163397	0.792618200419
0	177188	3000271.97330614482	1.780398108226
0	177195	3000359.984028921566	33.303996949231
0	177202	3000467.879683676495	32.863690545927
0	177209	3000490.531512962027	16.860979643787
0	177216	3000549.82984536544	40.999063691314
0	177223	3000566.619911349654	0.709594841509
0	177230	3000852.733958246856	22.19359744357
0	177237	3001061.833034601951	120.95694265537
0	177244	3001173.415910116405	1.94045780148
0	177251	3001231.486747295394	50.423430882106
0	177258	3001317.525878992953	69.38071579999
0	177267	3001532.049317604322	39.362136201015
0	177272	3001545.840393434146	13.791075829824
0	177281	3001859.132440678245	176.39445344896
0	177286	3001881.675759624282	22.543318946037
0	177295	3001944.397593439411	46.784005623949
0	177298	3001946.986441746686	2.588848307275
0	177307	3002099.383343380635	44.526026826686
0	177314	3002108.965888706439	5.17638361142
0	177321	3002132.953180167424	21.077660249869
0	177328	3002574.22981472707	6.519766556057
0	177335	3002655.515124140874	0.969388689902
0	177342	3002767.823158701312	27.67286582578
0	177378	3003879.351814603009	15.045701431743
0	177383	3003951.442198632938	72.090384029929
0	177389	3004027.189253969432	75.747055336494
0	177449	3005894.932055825333	125.29407734573
0	177454	3005903.996577116528	9.064521291195
0	177461	3006017.012218527721	113.01564141119
0	177466	3006052.292814264701	35.28059573698
0	177473	3006108.185979390491	55.89316512579
0	177479	3006127.636220340628	19.450240950137
0	177484	3006132.327160815303	4.690940474675
0	177489	3006253.446895171011	121.11973435571
0	177494	3006276.627860319323	23.180965148312
0	177497	3006277.091209363218	0.463349043895
0	177506	3006286.040904819984	8.949695456766
0	177515	3006311.069496385836	25.028591565852
0	177520	3006317.452298256997	6.382801871161
0	177525	3006324.885082069003	7.432783812006
0	177530	3006368.97375962481	44.088677555807
0	177541	3006500.941223498318	131.96746387351
0	177546	3006517.393379792609	16.452156294291
0	177553	3006621.049477911492	103.65609811888
0	177558	3006718.189697869461	97.140219957969
0	177563	3006770.846047676666	52.656349807205
0	177568	3006771.639131968769	0.793084292103
0	177573	3006856.536859484123	84.897727515354
0	177580	3006888.512449512391	31.975590028268
0	177585	3006889.484398347279	0.971948834888
0	177592	3007140.046803995871	26.082234929569
0	177599	3007322.315901228563	51.727561306304
0	177606	3007383.340835226759	27.573118766199
0	177613	3007581.763434581867	43.003865766191
0	177620	3007712.620450558024	5.826762146435
0	177627	3007757.777676580313	2.733371719741
0	177636	3008303.312546491524	163.19044637529
0	177641	3008309.602637822125	6.290091330601
0	177648	3008418.800185553457	14.810775001973
0	177655	3008627.729013879301	24.737274914502
0	177662	3008768.530713711296	26.622141446522
0	177669	3008924.153846547138	7.242526444432
0	177676	3008982.995615001728	19.628753175671
0	177683	3009194.057491039158	53.254980799533
0	177690	3009291.779563918154	33.184101624698
0	177699	3009529.874468484645	9.677459141277
0	177706	3009583.754585609584	53.880117124939
0	177709	3009587.595304927037	3.840719317453
0	177722	3009839.296642255869	200.01469969365
0	177727	3009874.84040897945	35.543766723581
0	177732	3009876.845457897427	2.005048917977
0	177739	3010074.848906072441	4.728955929083
0	177746	3010356.239500794838	88.260100792287
0	177755	3010428.209910719496	35.392675379182
0	177766	3010596.677546032498	168.467635313
0	177775	3010671.841963681478	75.16441764898
0	177782	3010783.793969347782	111.9520056663
0	177789	3010812.643844421402	28.84987507362
0	177794	3010840.341750737632	27.69790631623
0	177799	3010842.884850918063	2.543100180431
0	177804	3010860.714181683479	17.829330765416
0	177809	3010893.031155932447	32.316974248968
0	177816	3010966.596422400307	34.693826019664
0	177823	3011027.555628595002	18.00539179396
0	177830	3011254.944550529912	7.011319737192
0	177839	3011383.412366961534	12.741972627705
0	177846	3011400.559925439637	17.147558478103
0	177851	3011420.853428508689	20.293503069052
0	177858	3011490.93998297285	3.554147084534
0	177865	3011568.724058756176	44.656159490878
0	177872	3011776.922969538216	3.943946870726
0	177879	3012072.078022304491	13.700760343013
0	177886	3012161.576013922584	32.256643886337
0	177893	3012210.594475956414	17.137832655833
0	177900	3012460.169832037907	21.070111530496
0	177923	3013987.491528693226	141.84218718198
0	177974	3015333.264922161284	54.879835920759
0	177983	3015425.315805712472	92.050883551188
0	177997	3015541.735138417083	116.41933270461
0	178002	3015563.182750605325	21.447612188242
0	178007	3015581.854291999973	18.671541394648
0	178014	3015615.808140671182	33.953848671209
0	178019	3015626.385196816954	10.577056145772
0	178024	3015641.219297224127	14.834100407173
0	178029	3015727.412071782661	86.192774558534
0	178034	3015730.58425586622	3.172184083559
0	178041	3015788.950629924118	58.366374057898
0	178046	3015871.685779490189	82.735149566071
0	178051	3015962.67083291566	90.985053425471
0	178056	3016017.931073689273	55.260240773613
0	178061	3016073.086799145342	55.155725456069
0	178066	3016101.992211488324	28.905412342982
0	178075	3016122.734406504078	20.742195015754
0	178084	3016367.63417379547	244.89976729139
0	178089	3016410.381504636595	42.747330841125
0	178096	3016495.452441216055	85.07093657946
0	178101	3016565.499962592096	70.047521376041
0	178106	3016650.348600115651	84.848637523555
0	178113	3016695.63313329675	45.284533181099
0	178118	3016701.782313325466	6.149180028716
0	178125	3016728.851010596626	27.06869727116
0	178130	3016761.157423918584	32.306413321958
0	178135	3016768.186624867935	7.029200949351
0	178142	3017207.770431241811	38.006489202135
0	178149	3017488.758654933489	39.781565807101
0	178156	3017546.570161489116	42.001490676931
0	178167	3017680.177294237983	123.55378986789
0	178172	3017740.818666856407	60.641372618424
0	178177	3017745.39789867067	4.579231814263
0	178184	3017811.940867495872	5.770034450939
0	178191	3017920.930681059813	9.773448286079
0	178198	3017945.975597466223	14.899203624326
0	178207	3018085.869091320898	27.621310697918
0	178212	3018171.99992607488	86.130834753982
0	178223	3018894.567978703872	32.987113587989
0	178228	3018994.722918744525	100.15494004065
0	178233	3019025.631166697718	30.908247953193
0	178240	3019136.17851619381	12.774503607357
0	178276	3020322.277836711639	6.642106995061
0	178281	3020362.27636668323	39.998529971591
0	178286	3020373.246112223646	10.969745540416
0	178289	3020373.320212057339	0.074099833693
0	178296	3020394.434610692095	21.114398634756
0	178301	3020423.668539159824	29.233928467729
0	178310	3020579.235677466616	105.72349438208
0	178315	3020591.027028151948	11.791350685332
0	178322	3020603.554138285479	8.506645050795
0	178329	3020682.052054514025	14.296780380541
0	178336	3020804.41656557691	66.218212808742
0	178347	3020921.702618715902	1.68576040908
0	178354	3021396.938036717533	5.887308270946
0	178361	3021510.497469448543	34.54946002905
0	178368	3021530.858226322957	18.167158125215
0	178379	3021784.775356939955	142.44137627469
0	178384	3021836.748838102976	51.973481163021
0	178389	3021841.121282691482	4.372444588506
0	178396	3021960.60942353379	89.486515588359
0	178403	3022007.077169319523	13.400716713846
0	178410	3022107.495331719532	4.142056156914
0	178417	3022258.701565344331	4.543276832206
0	178424	3022289.996689587686	7.492995774644
0	178433	3022545.177808271156	22.436964761635
0	178438	3022589.27605402176	44.098245750604
0	178445	3022707.345683259571	87.10526606097
0	178599	3026728.020136243825	63.668537791623
0	178628	3027685.955854814975	13.881882038334
0	178636	3027709.517751244633	23.561896429658
0	178641	3027716.053467265834	6.535716021201
0	178648	3027729.433356532287	13.379889266453
0	178653	3027743.407473124745	13.974116592458
0	178658	3027778.918574965663	35.511101840918
0	178663	3027820.67217583326	41.753600867597
0	178672	3027873.359351925686	52.687176092426
0	178677	3027888.670123706591	15.310771780905
0	178684	3027939.43357158658	50.763447879989
0	178689	3027957.652629676611	18.219058090031
0	178694	3027982.468781254754	24.816151578143
0	178699	3028013.078452566951	30.609671312197
0	178704	3028137.547256784028	124.46880421708
0	178709	3028150.350458186275	12.803201402247
0	178718	3028233.346634607396	82.996176421121
0	178723	3028284.118855605569	50.772220998173
0	178730	3028358.683799639549	74.56494403398
0	178737	3028444.846394199349	86.1625945598
0	178742	3028488.583693772963	43.737299573614
0	178749	3028642.823663514641	154.23996974168
0	178754	3028658.173057139185	15.349393624544
0	178759	3028668.963429130322	10.790371991137
0	178764	3028737.767397797482	68.80396866716
0	178771	3028797.159365451005	59.391967653523
0	178776	3028802.703227093829	5.543861642824
0	178781	3028826.617263107175	23.914036013346
0	178788	3028871.73641417285	45.119151065675
0	178793	3028920.876893391611	49.140479218761
0	178798	3028929.608966882892	8.732073491281
0	178803	3028941.422040918706	11.813074035814
0	178808	3028942.701440418873	1.279399500167
0	178819	3029014.892103905175	72.190663486302
0	178824	3029146.899056700304	132.00695279513
0	178829	3029158.826135327678	11.927078627374
0	178838	3029244.577143200122	85.751007872444
0	178843	3029261.147283633283	16.570140433161
0	178848	3029263.989224011672	2.841940378389
0	178855	3029328.631782408979	64.642558397307
0	178860	3029371.795928255953	43.164145846974
0	178865	3029414.228168468038	42.432240212085
0	178872	3029463.56452433826	49.336355870222
0	178877	3029605.500396514959	141.9358721767
0	178882	3029618.76186564205	13.261469127091
0	178887	3029653.838294595388	35.076428953338
0	178892	3029675.596332608525	21.758038013137
0	178897	3029698.693167505716	23.096834897191
0	178900	3029699.962422655667	1.269255149951
0	178907	3029704.011095438804	4.048672783137
0	178914	3029838.315326913699	51.514112769347
0	178930	3030417.299555298408	7.144912985598
0	178937	3030439.559636095358	4.717309838601
0	178944	3030481.170048384694	31.309000719878
0	178955	3030634.457896057898	62.206494213866
0	178960	3030684.327088500698	49.8691924428
0	178965	3030696.290152726085	11.963064225387
0	178972	3030864.98681276361	13.55728284844
0	178979	3030988.323302475203	33.512465846737
0	178986	3031194.713215959699	126.57338118871
0	178993	3031231.911440391294	24.894996527244
0	179004	3031344.613571938509	43.466761749005
0	179009	3031353.898577764681	9.285005826172
0	179014	3031364.946124508193	11.047546743512
0	179021	3031505.807914681072	5.102799301213
0	179028	3031624.22641794894	66.611891718056
0	179035	3032082.20008075484	59.581987800929
0	179042	3032146.044615286898	1.830831212107
0	179049	3032342.372719832743	3.829443002169
0	179062	3032450.754174311768	74.250259302099
0	179067	3032454.223457282111	3.469282970343
0	179072	3032465.724506293319	11.501049011208
0	179079	3032515.313662156344	49.589155863025
0	179084	3032554.469658481966	39.155996325622
0	179091	3032739.576837248423	41.439164103448
0	179100	3032836.911939453251	38.008133243829
0	179105	3032838.775212026169	1.863272572918
0	179112	3032856.118949792272	7.938227218016
0	179121	3032926.635639337578	46.670882547765
0	179126	3032928.02493318329	1.389293845712
0	179133	3032983.305817445043	46.84557158917
0	179140	3033147.400037992048	7.754242053836
0	179149	3033356.820851739188	120.02066201154
0	179154	3033404.954789193591	48.133937454403
0	179161	3033470.015822607834	27.231197367005
0	179168	3033518.22339575632	3.263672800607
0	179175	3033738.879060237393	7.738802647418
0	179182	3033763.150369866589	14.281295518043
0	179189	3033951.997454047419	71.841253414517
0	179196	3034045.954869612726	19.630875149718
0	179203	3034149.705658064846	51.498627275084
0	179210	3034185.47137448737	2.991957888002
0	179217	3034346.797243150914	17.30458738973
0	179224	3034386.502180276354	8.82261800077
0	179231	3034488.346799309087	14.692132736559
0	179238	3034539.812264557354	21.723857998712
0	179245	3034544.472835892316	4.249390921922
0	179252	3034586.289752987689	19.770304182751
0	179264	3034901.198064335105	10.265773962533
0	179273	3035019.404232500237	66.858357137855
0	179278	3035045.17968884637	25.775456346133
0	179285	3035103.165766309176	7.680928666239
0	179292	3035118.451617127244	13.214173684292
0	179299	3035198.249245522352	73.484565925406
0	179306	3035296.261643985162	28.189592023161
0	179316	3035399.441854653022	73.696929737544
0	179358	3036285.972681830571	22.291524844966
0	179363	3036342.667187067796	56.694505237225
0	179368	3036344.595687272664	1.928500204868
0	179373	3036404.307841881112	59.712154608448
0	179378	3036418.281971337723	13.974129456611
0	179381	3036420.976344295947	2.694372958224
0	179390	3036496.272569138982	75.296224843035
0	179395	3036512.644547530185	16.371978391203
0	179400	3036537.560582892943	24.916035362758
0	179405	3036621.518764184009	83.958181291066
0	179412	3036689.254940652252	67.736176468243
0	179419	3036729.302217645136	40.047276992884
0	179424	3036759.878961378465	30.576743733329
0	179435	3036889.023085150843	39.042908585191
0	179440	3036938.121096212716	49.098011061873
0	179443	3036938.275425324523	0.154329111807
0	179454	3037120.557001419247	74.525741162731
0	179459	3037172.009421758502	51.452420339255
0	179468	3037534.445898352339	121.04074555741
0	179473	3037552.302428556896	17.856530204557
0	179484	3037634.83799071055	54.044914855747
0	179493	3037705.85159170473	71.01360099418
0	179498	3037710.469507167639	4.617915462909
0	179503	3037834.89865430899	124.42914714135
0	179508	3037850.72669952783	15.82804521884
0	179515	3038093.354250494522	110.03043043098
0	179522	3038315.52813175707	12.190446449973
0	179529	3038426.206108462303	18.674913703046
0	179536	3038453.966647519933	7.144379830587
0	179543	3038864.58573385253	33.840723630713
0	179792	3045728.554637254978	7.806369830658
0	179798	3045774.371397948297	45.816760693319
0	179805	3045815.862765991806	41.491368043509
0	179810	3045833.491978475017	17.629212483211
0	179819	3045899.087109119973	65.595130644956
0	179826	3045939.112618124741	40.025509004768
0	179831	3045966.370995476245	27.258377351504
0	179838	3045992.284455338879	25.913459862634
0	179843	3046017.010017851425	24.725562512546
0	179848	3046038.714909726581	21.704891875156
0	179853	3046040.695200901425	1.980291174844
0	179861	3046140.283613439437	99.588412538012
0	179866	3046171.97520439247	31.691590953033
0	179871	3046185.949368400051	13.974164007581
0	179878	3046314.844307342396	128.89493894234
0	179883	3046326.437330004337	11.593022661941
0	179888	3046434.908272365217	108.47094236088
0	179893	3046440.421438560302	5.513166195085
0	179900	3046613.352925749911	172.93148718961
0	179905	3046640.113014633652	26.760088883741
0	179910	3046674.022160306061	33.909145672409
0	179915	3046715.609569314336	41.587409008275
0	179920	3046719.226973722368	3.617404408032
0	179925	3046735.64802632029	16.421052597922
0	179932	3046781.54662089345	45.89859457316
0	179937	3046812.395151287214	30.848530393764
0	179942	3046822.261555057055	9.866403769841
0	179951	3046940.220624331815	117.95906927476
0	180004	3048286.733388989078	120.07118308583
0	180011	3048356.514617042026	69.781228052948
0	180016	3048358.874828964595	2.360211922569
0	180021	3048364.740879065573	5.866050100978
0	180026	3048385.741666848563	21.00078778299
0	180031	3048407.303522863705	21.561856015142
0	180036	3048449.625510917767	42.321988054062
0	180041	3048461.604267453189	11.978756535422
0	180046	3048507.545507419083	45.941239965894
0	180051	3048583.243973959911	75.698466540828
0	180060	3049036.934397213299	162.96241791837
0	180067	3049091.030328112226	54.095930898927
0	180072	3049161.351041485291	70.320713373065
0	180079	3049394.893268890571	10.369997600522
0	180086	3049590.257315643094	70.787775333297
0	180093	3049757.227624381931	91.865295019332
0	180100	3049931.737328449583	32.367644157198
0	180111	3050102.681244446076	80.708154682788
0	180116	3050116.245238592461	13.563994146385
0	180121	3050135.508280906531	19.26304231407
0	180128	3050177.727560133612	12.507410367372
0	180135	3050299.672352838193	3.3325546582
0	180142	3050339.711097405787	13.180089980455
0	180319	3055757.201098141504	59.516127628984
0	180326	3055803.285812887474	46.08471474597
0	180332	3055843.636814115497	40.351001228023
0	180338	3055905.187665830065	61.550851714568
0	180345	3055916.50633616296	11.318670332895
0	180354	3055984.277729371877	67.771393208917
0	180363	3056060.578402334683	76.300672962806
0	180368	3056140.516896017981	79.938493683298
0	180375	3056174.14931354238	33.632417524399
0	180380	3056188.346455807768	14.197142265388
0	180385	3056196.566280993692	8.219825185924
0	180390	3056205.469206992047	8.902925998355
0	180395	3056213.934003686735	8.464796694688
0	180400	3056249.080080293073	35.146076606338
0	180409	3056283.232799225689	34.152718932616
0	180414	3056322.549993989019	39.31719476333
0	180419	3056332.721232747883	10.171238758864
0	180422	3056332.728861873397	0.007629125514
0	180425	3056333.404181450625	0.675319577228
0	180436	3056391.142670423141	57.738488972516
0	180441	3056419.794583514278	28.651913091137
0	180448	3056446.970099863157	27.175516348879
0	180453	3056457.846120947858	10.876021084701
0	180458	3056462.94719748632	5.101076538462
0	180463	3056491.22515319932	28.277955713
0	180468	3056529.1053812645	37.88022806518
0	180473	3056578.962012298764	49.856631034264
0	180480	3056728.163461063777	149.20144876501
0	180485	3056730.598179209202	2.434718145425
0	180492	3056877.506567544442	5.232865084215
0	180499	3056933.152973958427	0.140038864618
0	180506	3057050.062087336837	34.047064307532
0	180513	3057110.314411954189	10.157521361021
0	180520	3057171.327698476057	27.934833704922
0	180527	3057457.660019769819	53.035654501374
0	180534	3057680.165024400556	11.422661877164
0	180543	3057769.522440198457	61.966733391914
0	180548	3057789.846134775409	20.323694576952
0	180555	3057805.269047105738	0.900664321463
0	180562	3057832.605924042913	23.789583244224
0	180575	3058072.872688687497	153.39081398865
0	180580	3058075.213247051664	2.340558364167
0	180585	3058094.13386458814	18.920617536476
0	180590	3058129.863152510722	35.729287922582
0	180597	3058361.217585362671	15.889722684291
0	180604	3058516.674927974409	0.836471588523
0	180611	3058552.857041933917	14.814428341397
0	180618	3058812.307407977722	37.632190396994
0	180625	3059124.421268834189	13.419883244363
0	180632	3059184.109638526792	19.931666749191
0	180639	3059408.319665550944	74.26203395374
0	180646	3059649.49720554848	9.344756929048
0	180653	3059704.024329999616	3.416027985444
0	180737	3061934.706817208768	108.22918776681
0	180744	3061961.209255287779	26.502438079011
0	180749	3061966.157465389616	4.948210101837
0	180752	3061966.357458194135	0.199992804519
0	180759	3061970.342438950054	3.984980755919
0	180764	3061989.002304435577	18.659865485523
0	180769	3061994.523261265992	5.520956830415
0	180774	3062035.516902183518	40.993640917526
0	180779	3062043.408570680583	7.891668497065
0	180784	3062112.902705936951	69.494135256368
0	180789	3062134.968930140742	22.066224203791
0	180800	3062229.611068601867	94.642138461125
0	180813	3062426.432344469064	196.8212758672
0	180818	3062547.041011226187	120.60866675712
0	180823	3062572.933416009046	25.892404782859
0	180826	3062573.766229787845	0.832813778799
0	180833	3062592.946033075465	19.17980328762
0	180838	3062634.209856015998	41.263822940533
0	180843	3062664.868325427184	30.658469411186
0	180848	3062694.229796773676	29.361471346492
0	180853	3062803.235140297895	109.00534352422
0	180858	3062829.231831714436	25.996691416541
0	180863	3062831.612116260271	2.380284545835
0	180868	3062843.353955074684	11.741838814413
0	180875	3062921.798106122508	55.95419638258
0	180884	3063301.551234758129	7.652798623485
0	180889	3063325.88265175099	24.331416992861
0	180896	3063569.468045064297	25.633784733063
0	180905	3063636.162355489322	51.764271928074
0	180910	3063656.692478827221	20.530123337899
0	180917	3063964.604961230311	49.685788160048
0	180924	3064108.766406697748	24.396641247635
0	180935	3064262.149995806186	114.12440741272
0	180940	3064270.157152319372	8.007156513186
0	180945	3064276.14725899128	5.990106671908
0	180952	3064304.955539063883	23.901639403387
0	180959	3064392.824105594863	16.492700442436
0	180968	3064760.826136472156	124.30234621369
0	180973	3064767.817252004714	6.991115532558
0	180980	3064974.497100466057	88.066323093013
0	180987	3065054.842111018862	16.505821502207
0	180998	3065261.668942354805	181.46477127501
0	181003	3065263.061023706912	1.392081352107
0	181008	3065277.535741112863	14.474717405951
0	181017	3065388.436980824107	42.352022669502
0	181024	3065460.331981756473	71.895000932366
0	181029	3065537.948881632658	77.616899876185
0	181036	3065667.567750768703	6.967709328985
0	181043	3065845.687012413039	64.970598377336
0	181050	3065893.649270254369	42.91608698423
0	181057	3065952.449834383252	28.243643246945
0	181064	3066028.832173691615	4.426571367856
0	181073	3066100.003946579514	25.522367923538
0	181076	3066101.029591210119	1.025644630605
0	181085	3066148.44064200475	41.593890935173
0	181096	3066775.587338411311	251.66608566158
0	181101	3066787.259755611142	11.672417199831
0	181106	3066801.644310350678	14.384554739536
0	181113	3066902.949122786958	93.992254675908
0	181120	3066941.721521567406	15.516263578675
0	181127	3067252.515602699127	38.067340756334
0	181136	3067434.68899697383	100.37627123527
0	181145	3067508.595702660841	73.906705687011
0	181150	3067603.740380330777	95.144677669936
0	181155	3067645.03595625982	41.295575929043
0	181162	3067818.592192759726	19.327574594378
0	181230	3070029.878994921352	89.629935688221
0	181235	3070070.576881793075	40.697886871723
0	181241	3070103.223523692815	32.64664189974
0	181250	3070210.192829259122	106.96930556631
0	181255	3070213.98150523101	3.788675971888
0	181260	3070221.501745887116	7.520240656106
0	181265	3070245.550868061874	24.049122174758
0	181270	3070265.335650033927	19.784781972053
0	181277	3070313.870377460788	48.534727426861
0	181282	3070335.751417212343	21.881039751555
0	181291	3070418.891707913293	83.14029070095
0	181296	3070424.718433267685	5.826725354392
0	181301	3070441.097236472108	16.378803204423
0	181310	3070569.175827003982	128.07859053187
0	181315	3070588.53421939166	19.358392387678
0	181320	3070613.529417521308	24.995198129648
0	181326	3070648.4459707927	34.916553271392
0	181367	3071826.400840607192	81.551487422579
0	181372	3071828.606912251035	2.206071643843
0	181378	3071846.258243901543	17.651331650508
0	181383	3071885.545205865989	39.286961964446
0	181388	3071895.295960163833	9.750754297844
0	181397	3072006.642906718248	111.34694655441
0	181402	3072021.060248744571	14.417342026323
0	181409	3072101.19209912435	80.131850379779
0	181418	3072206.422953736786	105.23085461244
0	181423	3072214.753987152916	8.33103341613
0	181428	3072244.539315001552	29.785327848636
0	181433	3072263.495697865105	18.956382863553
0	181438	3072265.11259407815	1.616896213045
0	181443	3072285.498562612964	20.385968534814
0	181448	3072313.936605824347	28.438043211383
0	181453	3072314.264673507768	0.328067683421
0	181461	3072507.98811454855	193.72344104078
0	181469	3072713.140598911484	23.104072069199
0	181474	3072829.647134517954	116.50653560647
0	181483	3072913.098053529953	83.450919011999
0	181490	3072927.242211062341	14.144157532388
0	181495	3072935.531078453654	8.288867391313
0	181500	3072945.060662784643	9.529584330989
0	181509	3072987.853353120677	17.026600388823
0	181514	3073087.082827199191	99.229474078514
0	181543	3073878.884435466828	33.458951573787
0	181556	3073959.425940309532	80.541504842704
0	181561	3074019.785428784095	60.359488474563
0	181566	3074057.362375030541	37.576946246446
0	181571	3074120.06704429124	62.704669260699
0	181576	3074134.693623947424	14.626579656184
0	181585	3074324.980902048561	89.357469766473
0	181590	3074339.876352435419	14.895450386858
0	181597	3074404.819742533285	10.504635548992
0	181604	3074538.304520427189	97.681434879451
0	181613	3074672.409165713299	55.954309327709
0	181618	3074704.346244676931	31.937078963632
0	181625	3074906.065517419437	47.972705080849
0	181636	3075017.427087628061	72.398070150409
0	181643	3075068.876603085916	51.449515457855
0	181700	3076348.508721339276	38.163559209919
0	181763	3077765.3906412246	10.075504435395
0	181770	3077803.883095096212	38.492453871612
0	181775	3077812.845488985235	8.962393889023
0	181780	3077827.870346446557	15.024857461322
0	181790	3077901.538010371317	73.66766392476
0	181799	3077909.433177054873	7.895166683556
0	181804	3077910.875233181578	1.442056126705
0	181809	3077920.278601208532	9.403368026954
0	181814	3077933.069989993893	12.791388785361
0	181819	3077939.013751719402	5.943761725509
0	181824	3077954.260155449131	15.246403729729
0	181829	3077959.095034325563	4.834878876432
0	181836	3078036.75758974227	77.662555416707
0	181841	3078038.784745958503	2.027156216233
0	181846	3078065.596397795463	26.81165183696
0	181851	3078099.654034611408	34.057636815945
0	181856	3078104.005907412343	4.351872800935
0	181861	3078140.374855958162	36.368948545819
0	181872	3078357.355196757167	216.98034079901
0	181877	3078466.96721283217	109.612016075
0	181884	3078518.889783150418	51.922570318248
0	181891	3078642.930992710053	124.04120955963
0	181896	3078652.045540378671	9.114547668618
0	181903	3078861.207740296001	209.16219991733
0	181908	3078895.553814414293	34.346074118292
0	181913	3078918.498889652493	22.9450752382
0	181924	3078977.790142033047	59.291252380554
0	181929	3079029.411161068615	51.621019035568
0	181934	3079036.642568797882	7.231407729267
0	181939	3079048.031549380087	11.388980582205
0	181946	3079075.201370784019	27.169821403932
0	181951	3079186.878877209078	111.67750642506
0	181956	3079196.912664899979	10.033787690901
0	181961	3079207.876668397792	10.964003497813
0	181968	3079265.770280440953	57.893612043161
0	181973	3079391.124178902461	125.35389846151
0	181980	3079586.361116044383	75.65160687673
0	181989	3079629.735696595349	9.136191693638
0	181994	3079658.569025718017	28.833329122668
0	182001	3079716.765224274602	45.182531403205
0	182008	3079792.313962508581	17.905697963869
0	182015	3079805.352588673855	9.158611497838
0	182022	3079813.959236755381	0.571210518527
0	182031	3079856.283797312198	25.130521097664
0	182040	3079887.279424667453	30.995627355255
0	182045	3079909.287527876452	22.008103208999
0	182050	3079910.113283531233	0.825755654781
0	182057	3080151.088904311406	16.038095829446
0	182064	3080201.319922589508	4.173697453284
0	182071	3080350.667638042388	3.499120157885
0	182082	3080601.78787567809	52.90985328068
0	182089	3080688.010398124671	86.222522446581
0	182094	3080690.105976671625	2.095578546954
0	182099	3080711.916598414272	21.810621742647
0	182106	3080822.624136758397	30.683774682666
0	182113	3080835.73309017136	9.545725043477
0	182120	3081080.927682252653	18.515296908764
0	182129	3081253.53050904188	58.651109815308
0	182134	3081259.73706493519	6.20655589331
0	182146	3081727.936723476323	26.230729976185
0	182153	3081815.313915422313	6.337281717829
0	182160	3081867.103694154801	5.001483589185
0	182167	3082351.961618971853	16.526432832945