version 2
run Simulations-15-20191218-11:09:14-65753
attr configname Simulations
attr datetime 20191218-11:09:14
attr experiment Simulations
attr inifile omnetpp.ini
attr iterationvars "$seed=7, $0=8000"
attr iterationvarsf seed=7,8000-
attr measurement "$seed=7, $0=8000"
attr network WifiCelNetPassiveQueue
attr processid 65753
attr repetition 0
attr replication #0
attr resultdir results/Simulations/omnet
attr runnumber 15
attr seedset 7
itervar seed 7
param **.numJobs 10000
param *.OFFLOAD.deadline exponential(8000s)
param *.source.interArrivalTime exponential(120s)
param *.WIFI.serviceTime exponential(40s)
param *.CELL.serviceTime exponential(400s)
param *.OFFLOAD.switchToWi exponential(1524s)
param *.OFFLOAD.switchToCel exponential(3120s)
param *.LOCAL.serviceTime exponential(5s)
param *.REMOTE.serviceTime exponential(1s)

vector 0 WifiCelNetPassiveQueue.OFFLOAD storeWifiTime:vector ETV
attr interpolationmode none
attr title "Time in Wifi, vector"
attr unit s
vector 1 WifiCelNetPassiveQueue.OFFLOAD queueLength:vector ETV
attr interpolationmode sample-hold
attr title "queue length, vector"
vector 2 WifiCelNetPassiveQueue.WIFI serviceTime:vector ETV
attr interpolationmode none
attr title "wifi Service, vector"
attr unit s
vector 3 WifiCelNetPassiveQueue.WIFI responseTime:vector ETV
attr interpolationmode none
attr title "Response Time, vector"
attr unit s
vector 4 WifiCelNetPassiveQueue.REMOTE serviceTime:vector ETV
attr interpolationmode none
attr title "wifi Service, vector"
attr unit s
vector 5 WifiCelNetPassiveQueue.REMOTE responseTime:vector ETV
attr interpolationmode none
attr title "Response Time, vector"
attr unit s
vector 6 WifiCelNetPassiveQueue.sink lifeTime:vector ETV
attr interpolationmode none
attr title "lifetime of arrived jobs, vector"
attr unit s
vector 7 WifiCelNetPassiveQueue.CELL serviceTime:vector ETV
attr interpolationmode none
attr title "wifi Service, vector"
attr unit s
vector 8 WifiCelNetPassiveQueue.CELL responseTime:vector ETV
attr interpolationmode none
attr title "Response Time, vector"
attr unit s
vector 9 WifiCelNetPassiveQueue.OFFLOAD storeCelTime:vector ETV
attr interpolationmode none
attr title "Time in Cell, vector"
attr unit s
vector 10 WifiCelNetPassiveQueue.OFFLOAD storeDeadline:vector ETV
attr interpolationmode none
attr title "deadline, vector"
attr unit s
vector 11 WifiCelNetPassiveQueue.LOCAL serviceTime:vector ETV
attr interpolationmode none
attr title "wifi Service, vector"
attr unit s
vector 12 WifiCelNetPassiveQueue.LOCAL responseTime:vector ETV
attr interpolationmode none
attr title "Response Time, vector"
attr unit s
vector 13 WifiCelNetPassiveQueue.REMOTE queueLength:vector ETV
attr interpolationmode sample-hold
attr title "queue length, vector"
vector 14 WifiCelNetPassiveQueue.LOCAL queueLength:vector ETV
attr interpolationmode sample-hold
attr title "queue length, vector"
0	177056	3000012.707720171892	60.027242426377
0	177124	3001646.927140887443	5038.118172043
0	177549	3007249.779897510636	4122.4996290438
0	177950	3013993.354203319221	9931.2156316566
0	178624	3026846.806681095518	1015.4581441003
0	178917	3031424.677971385868	663.23474727904
0	179000	3032149.051364744328	5952.820550989
0	179361	3040389.194154388049	6710.9816341306
0	179842	3047380.048382006921	3032.6039436632
0	180049	3050976.106209309163	6421.9852810368
0	180459	3058140.709131981127	5641.7986872493
0	180931	3066583.987090905892	3850.8231427919
0	181303	3070558.218173846777	9520.3996829208
0	181803	3081235.88540433265	2975.5788639733
0	182178	3088194.610941618652	1866.8055738554
0	182404	3091449.516241521122	258.03140335303
0	182547	3094657.34455098783	1862.888446809
0	182721	3096766.437231436402	2961.4562281867
0	182971	3100187.258340471393	1092.0726248462
0	183091	3103860.661886204358	843.97600671564
0	183200	3105219.065355111552	663.67114468984
0	183265	3106831.629141255225	884.1660718542
0	183376	3108692.419310415949	1747.1444461574
0	183544	3110535.443515912581	3370.3742040753
0	183732	3113966.66543040715	114.09777662358
0	183762	3114697.402276378973	2628.5169426769
0	183978	3118163.782781673091	9477.0052832007
0	184619	3129020.220366231368	11743.431164141
0	185399	3143441.251087371671	31.197267848142
0	185414	3143603.546387574646	179.45751405741
0	185448	3144092.239072628725	507.51452794977
0	185517	3144688.706224752653	1015.6764494431
0	185586	3146225.711161443521	121.79550123298
0	185708	3150067.390163285454	2235.5770912236
0	185916	3152570.985611416599	3670.7529003837
0	186177	3157140.41393265117	2683.5549795148
0	186314	3160214.666663627185	2804.8729011227
0	186753	3168480.507619611268	3733.0892846131
0	187240	3177105.310336092016	2514.6797603313
0	187471	3180554.787132433426	2543.8204548337
0	187642	3183257.28366465847	3858.3150499987
0	187929	3188415.597326205671	3394.6669549717
0	188157	3193153.099840250769	1411.6623760965
0	188472	3200087.104185042826	4539.2973970285
0	188786	3205788.879792985701	108.84501234175
0	188836	3207415.266907607694	5117.5911223356
0	189239	3213509.921698078468	1565.0380208644
0	189435	3217436.089828794688	292.40404960555
0	189526	3218329.818891972202	2461.1365345836
0	189811	3221399.157231486926	7273.816984034
0	190358	3232947.796715929404	1487.3066872495
0	190614	3235437.882967863699	2054.1819443289
0	190779	3238217.466867979348	56.351140969896
0	190848	3239354.907178141591	1446.3389961039
0	191052	3242182.615151225841	565.37077137316
0	191137	3243964.896004486409	8714.7316586264
0	191673	3253441.938709904972	666.63839784076
0	191729	3255145.360978040221	5553.1712749243
0	192261	3264306.366767933834	476.28110001301
0	192411	3266675.665128777507	386.06660210463
0	192520	3268064.278685501501	815.4141331458
0	192657	3269107.63780910269	1378.0916344826
0	192843	3271774.737175757097	1553.5155448851
0	193007	3275169.459886196642	3537.154992452
0	193234	3280310.069727873306	322.03175218805
0	193321	3283090.931420255891	581.63513232218
0	193454	3284110.822491232035	94.649884029293
0	193575	3287118.017263901936	1007.4872367056
0	193712	3288816.416338825277	1855.7956676383
0	193831	3290725.258262786688	1328.2856180301
0	193946	3294041.769964591743	4394.9522946135
0	194335	3300753.70210364656	328.57158106882
0	194431	3302851.334228287834	5291.1688344665
0	194746	3308444.914007623471	11405.248854381
0	195471	3320735.853990130149	4019.958193587
0	195753	3325433.621206187878	7608.8708859263
0	196150	3333459.30404594713	1844.6304069483
0	196290	3335514.976206708506	3413.0552642604
0	196634	3342449.758545193647	3094.6175268406
0	196945	3348788.071098906599	18112.811892069
0	197974	3367981.395500770926	443.73559106204
0	198229	3375051.561606288039	4589.4637936639
0	198703	3380960.819046876025	6053.2834505065
0	199120	3388698.08585461509	1578.6266949896
0	199361	3392889.354464799552	2974.9270941241
0	199645	3396530.614227743915	657.54930433217
0	199725	3398485.274242156648	7241.2256047707
0	200257	3406116.229323123618	2201.5186639963
0	200396	3408985.696949041876	4999.8512535129
0	200819	3415983.092307591484	4206.3471826449
0	201108	3420299.740016570491	2358.2181017267
0	201332	3424814.130075490273	141.27179606604
0	201365	3425235.530313392242	1186.1296737198
0	201569	3428100.425812397871	3288.0151729584
0	201934	3434266.096579579096	336.26361960203
0	202014	3434622.917788180888	5335.0100385372
0	202349	3440758.045363947672	5495.3272418984
0	202751	3446654.658287894323	2703.412164462
0	202931	3449624.356733084426	643.25073286238
0	203150	3455585.022352543289	550.52807338236
0	203278	3457429.024620025586	836.97640124859
0	203456	3460423.800808462156	788.77832153266
0	203606	3462586.514331262752	10428.202849982
0	204249	3473924.004000161086	1734.0239696231
0	204428	3475727.796027652524	1321.1670251336
0	204505	3477341.825448784055	2624.545502501
0	204637	3480376.940445942993	993.43005297294
0	204785	3483141.248157522051	395.05795678322
0	204845	3483832.196921457643	374.76292947016
0	204918	3485530.482164326433	880.45652488605
0	204980	3486691.295645110043	2323.416818664
0	205139	3489144.461865791098	3740.5508636325
0	205422	3493276.123057683912	2562.1135596163
0	205645	3496797.164631063976	958.02187244206
0	205790	3498878.512888862557	24.644873962198
0	205814	3499718.3176562505	6837.1306760635
0	206260	3507487.799716836755	5103.8932823428
0	206613	3514207.113989324675	1.73806121054
0	206624	3514527.247327650922	8806.0302879396
0	207190	3524362.600443262399	1270.4364805408
0	207330	3527552.274046003481	5139.065265776
0	207696	3532867.29691284853	84.521684869557
0	207743	3534518.309711906696	143.67612805382
0	207826	3536191.038784245113	4380.9139046641
0	208120	3541838.003284438327	8200.5214151807
0	208684	3551911.719873623174	8486.4007156102
0	209139	3560769.511574509671	7685.0248858859
0	209675	3569657.507071948628	574.82405993854
0	209731	3570385.392433861845	750.66547807186
0	209766	3571535.341021222536	4038.0150248356
0	210072	3577309.962861168957	566.2094494966
0	210185	3578506.809435686789	6772.4639845795
0	210808	3589636.85877391391	2235.5563889503
0	211069	3594069.52655146109	5670.0563936002
0	211440	3600439.5559221908	21726.433007748
0	212748	3623523.598128531065	12583.544712297
0	213721	3638688.826935687158	173.06821434094
0	213780	3640222.649134796089	7091.4686318237
0	214298	3647736.833182618143	2786.0440959424
0	214433	3651198.248466823537	1711.781794604
0	214582	3653312.690255601864	4068.7160190415
0	214833	3658404.607046496057	402.07507787859
0	214912	3660283.590822744026	3645.777467822
0	215256	3667766.975400999037	2085.2170602773
0	215506	3672326.418478687201	564.26596916522
0	215582	3673567.414140116775	1693.811964493
0	215741	3676545.842960113232	5114.4550737477
0	216041	3681755.78263421156	901.75553354677
0	216172	3685053.057551426301	2326.9442033382
0	216354	3687500.173385281401	6906.647901617
0	216825	3694493.017088289477	3596.0962413553
0	217006	3699252.146069042645	3773.9466267213
0	217317	3703418.006456591469	6635.5212325414
0	217808	3710667.920824928428	2164.170879473
0	218050	3714575.395603306294	1539.6458661675
0	218245	3718435.089989296109	2131.1189107453
0	218527	3722611.150305852975	221.62085548671
0	218567	3723028.57416893935	1717.1210997974
0	218763	3724942.708010360533	5885.3261160519
0	219189	3732449.338469525063	2931.4709908201
0	219379	3735792.845516750785	2379.9463978072
0	219546	3738732.533099368036	3303.958287201
0	219807	3745165.859673904763	7705.8786123355
0	220240	3753278.245444285229	480.0627868236
0	220331	3754192.452434022033	1220.7342864725
0	220417	3755559.399954226212	4071.7845693707
0	220652	3760001.695526481633	4495.581024623
0	220903	3766198.363915490702	1226.1282179719
0	221005	3767521.356491230619	511.04974166794
0	221116	3769078.045742824723	3374.9549465529
0	221480	3774638.417392542209	6709.8659520543
0	221980	3781447.679808727419	3383.2670835063
0	222226	3786042.49282642145	3546.6744226419
0	222539	3790674.699530101508	6257.1611149743
0	222960	3798293.097212839022	6552.0115471655
0	223341	3805600.242023561827	3793.5961222952
0	223655	3809950.888504306153	533.08566181862
0	223760	3811473.354961723617	1256.5522823633
0	224014	3815633.858058397499	86.682986442307
0	224076	3816896.054467245833	1762.708119554
0	224311	3820160.878798910676	1306.666662036
0	224532	3823942.271417235943	78.572458586435
0	224574	3824696.314224705879	228.79661185252
0	224659	3826141.068941315637	2907.7945656382
0	224934	3829319.323188897645	846.34029142673
0	225071	3833158.711812388925	969.95905375057
0	225212	3834967.824467734906	1235.8812308899
0	225395	3837852.77778224848	1585.1748225946
0	225573	3839528.583549824826	1476.6103843914
0	225687	3842139.723944358235	1013.3473817109
0	225876	3845013.061825789481	863.16482053754
0	226093	3848114.682753586411	1010.5134128407
0	226420	3853335.440377759095	9918.1356976262
0	227048	3863632.886890395808	3808.4565784146
0	227387	3870049.257823924449	2128.1174774101
0	227693	3874350.73925941193	1726.2345369972
0	227829	3876407.20150762985	2320.4700742518
0	227948	3878861.75767071313	1893.9329242994
0	228066	3881099.203400985474	2020.0677059591
0	228208	3883120.607165870801	616.71768684727
0	228254	3884777.525717158863	7.422712397912
0	228308	3886537.025068187874	1070.0598336013
0	228434	3888271.226268687236	1475.2379111747
0	228667	3893917.430779363537	3753.9378989814
0	229087	3899431.632632458394	664.34142401543
0	229199	3900911.411353777565	697.1134120618
0	229257	3901664.630209287603	542.9427424685
0	229357	3903642.336342720271	1446.8815164251
0	229755	3912322.66797631969	2162.50281374
0	230082	3915132.99803902631	1337.8605254697
0	230164	3916909.300981966064	2108.4415947877
0	230313	3920075.68661332913	7468.6726063778
0	230884	3928420.685559408473	518.69444455137
0	231004	3930634.104552563639	54.922732652021
0	231049	3931596.026103487388	2474.7844421311
0	231234	3935094.013430517471	266.14497753011
0	231306	3936234.33396712347	4055.1855854642
0	231630	3941394.288690491578	7238.3252849619
0	232102	3949578.492062012757	1014.5049961401
0	232283	3953167.968294602046	103.51263080188
0	232307	3954120.530993012333	1736.7900026944
0	232513	3957376.764733620043	3919.9203927311
0	232811	3961476.116198659255	5839.9663403537
0	233265	3970781.953880643074	2891.3009505055
0	233655	3980230.489914538651	9633.3937033411
0	234332	3990456.687819376234	4268.1978526466
0	234684	3997884.409106519709	6102.8512979865
0	235129	4005649.896433636659	5955.9248074227
0	235534	4013294.011449300611	3693.8485476837
0	235824	4017172.725778495858	1770.1624697751
0	236093	4022252.965539653776	1704.9567834734
0	236587	4031873.511120209234	6539.0941936985
0	237075	4039798.577794342456	4438.8142272769
0	237441	4045148.912551698503	261.51478972611
0	237462	4045966.903346177986	477.31946499355
0	237496	4046526.34071725235	404.71833789021
0	237605	4049472.850477192441	2246.1417404176
0	237868	4054360.513810134658	343.0448469135
0	237955	4055278.432144402772	3228.2584150317
0	238187	4059705.453606987687	484.57352590492
0	238327	4062112.055393528058	5196.6423337229
0	238853	4068434.62677384948	716.62220491029
0	239083	4072612.679459273767	2378.7912349607
0	239342	4076163.2356454891	3232.9564606831
0	239604	4080901.656101655632	1316.4070099288
0	239718	4083489.161376847178	618.89300412191
0	239872	4085462.482303069502	1052.1809929636
0	240112	4090177.164590459412	789.73735423284
0	240258	4092589.339581859629	57.657998475431
0	240322	4094007.178609687516	8152.7422121602
0	240847	4102180.699934207945	3491.9797709096
0	241022	4105706.440838426255	614.55073892166
0	241073	4106676.902977416213	2682.4949220332
0	241267	4109953.386478192053	715.00828941251
0	241339	4112570.782074574696	2002.8397619642
0	241496	4115664.530557012134	1346.8694938137
0	241715	4120177.304736104671	4072.2639993985
0	242029	4124852.111666595658	130.05742117938
0	242101	4126677.864605902188	3036.710639102
0	242449	4132579.005183451332	4121.4395522933
0	242955	4141212.899714930086	5901.7239563305
0	243381	4147238.720197006792	331.09761858477
0	243470	4149979.928240784426	2058.6707997271
0	243742	4154400.16590698168	1539.1922265862
0	243944	4156807.740871100469	7749.0256244989
0	244545	4169500.852927634921	20.143501445863
0	244575	4169890.215308923859	4663.296227743
0	245069	4177653.605973505305	1547.6077390941
0	245282	4179424.698131352419	2191.3794535467
0	245480	4181954.60276158028	3058.6000327082
0	245706	4185106.553029411776	5033.6818502925
0	245980	4190769.62543723931	174.41799808888
0	246018	4191120.819771822109	3690.3524662263
0	246244	4195977.148152705894	1067.6729422972
0	246351	4197831.731620217946	804.91427411181
0	246434	4199554.596849792103	525.33142023904
0	246471	4200364.651294225267	845.09647327078
0	246583	4202666.602608764671	532.34106295106
0	246677	4203755.171954339042	855.94888517644
0	246774	4205649.247602329936	4309.2881368421
0	247063	4210052.869625980904	3314.2084750149
0	247256	4213431.02608628055	2120.8955158599
1	177056	3000012.707720171892	10
1	177058	3000029.310480777783	9
1	177064	3000052.288014693007	10
1	177069	3000072.734962598269	9
1	177076	3000082.99354739459	10
1	177078	3000091.20964031511	11
1	177080	3000190.841668758902	12
1	177081	3000354.04976958627	11
1	177086	3000504.891270655878	10
1	177092	3000522.782903477642	11
1	177094	3000524.022251341407	12
1	177095	3000612.244805853993	11
1	177100	3000623.625063696993	10
1	177106	3000744.887180564772	11
1	177107	3000951.003243457487	10
1	177112	3001064.703524633188	11
1	177114	3001414.002002266034	12
1	177116	3001447.800055848041	13
1	177117	3001568.260057526953	12
1	177123	3001583.332156534256	13
1	177124	3001646.927140887443	12
1	177127	3001677.278551372709	13
1	177128	3001695.240173934364	12
1	177134	3001732.081510409391	13
1	177136	3001747.212968870844	14
1	177137	3001836.852275781128	13
1	177142	3001853.233456207735	12
1	177152	3001862.470687421817	11
1	177157	3001957.505872887294	10
1	177163	3001967.900658415639	11
1	177164	3001987.983286018843	10
1	177169	3001993.507834750391	9
1	177174	3001996.673480500582	8
1	177179	3002001.469399657324	7
1	177184	3002003.356433959424	6
1	177190	3002054.660490290492	7
1	177191	3002140.034678866017	6
1	177196	3002143.514353152696	5
1	177201	3002161.114169444005	4
1	177207	3002194.245156823901	5
1	177208	3002236.124532471256	4
1	177213	3002266.247442884327	3
1	177219	3002289.334743649273	4
1	177221	3002323.161402231504	5
1	177222	3002345.39853757097	4
1	177227	3002370.401860198503	3
1	177232	3002416.07620617249	2
1	177237	3002442.347929924233	1
1	177242	3002446.630280643501	0
1	177318	3003477.502678777822	1
1	177320	3003502.371057014463	2
1	177321	3003512.724545810573	1
1	177326	3003617.925985497242	0
1	177346	3003813.47107166023	1
1	177347	3003866.265732756892	0
1	177374	3004429.311458566139	1
1	177375	3004433.419850158105	0
1	177416	3005250.907431023461	1
1	177417	3005307.063143903962	0
1	177437	3005413.505593609453	1
1	177438	3005413.693311986342	0
1	177444	3005419.150060591062	1
1	177446	3005434.94329781798	2
1	177447	3005476.07448616735	1
1	177452	3005477.153750458743	0
1	177486	3006176.152034809831	1
1	177487	3006185.676405729465	0
1	177493	3006217.008954614475	1
1	177494	3006224.442367125103	0
1	177536	3006791.098619690653	1
1	177538	3007100.067064920743	2
1	177540	3007168.753061072725	3
1	177542	3007186.514208939247	4
1	177544	3007201.375354646875	5
1	177546	3007232.83431297959	6
1	177548	3007236.587156417105	7
1	177549	3007249.779897510636	6
1	177552	3007411.254531970619	7
1	177553	3007450.727116401804	6
1	177559	3007462.672859477724	7
1	177560	3007472.386940005939	6
1	177566	3007503.652534149045	7
1	177568	3007523.023487671407	8
1	177569	3007529.995884234259	7
1	177579	3007574.654221325286	8
1	177580	3007581.726283246916	7
1	177585	3007604.159100920841	6
1	177590	3007635.60490533454	5
1	177595	3007715.1277915279	4
1	177600	3007738.929110063317	3
1	177605	3007757.523196869699	2
1	177611	3007763.071866767934	3
1	177613	3007769.396359359933	4
1	177615	3007805.852480485345	5
1	177616	3007823.462274277397	4
1	177622	3007936.432001101862	5
1	177623	3007940.190728774217	4
1	177628	3007964.474959648926	3
1	177633	3007990.895158737793	2
1	177638	3008000.351110465186	1
1	177643	3008031.86204651751	0
1	177740	3009960.257787587748	1
1	177741	3009992.598558993668	0
1	177747	3010010.077848452296	1
1	177748	3010050.024766526046	0
1	177761	3010139.831935154287	1
1	177762	3010148.418711818562	0
1	177775	3010493.025629225162	1
1	177776	3010533.230709240834	0
1	177803	3010962.658321134236	1
1	177804	3010966.440171121978	0
1	177817	3011083.863235018506	1
1	177819	3011122.163950053079	2
1	177821	3011133.381505437393	3
1	177822	3011148.825431157567	2
1	177827	3011154.245718486479	1
1	177833	3011295.060423699092	2
1	177834	3011322.875270366579	1
1	177839	3011329.193688880616	0
1	177845	3011331.187022480021	1
1	177846	3011333.630041723234	0
1	177860	3011655.173113892711	1
1	177862	3011959.412261438195	2
1	177863	3011999.179732875373	1
1	177869	3012013.587010909307	2
1	177871	3012309.339071080485	3
1	177872	3012423.895165474967	2
1	177878	3012424.917193198825	3
1	177880	3012534.50136926271	4
1	177882	3012586.935050114094	5
1	177884	3012588.349306347998	6
1	177886	3012640.199874121401	7
1	177888	3012682.88112944768	8
1	177890	3012737.286077551378	9
1	177892	3012819.812091020194	10
1	177893	3012978.179249743947	9
1	177899	3012995.329301283371	10
1	177901	3013035.610388148125	11
1	177903	3013059.311278144347	12
1	177905	3013092.253116255981	13
1	177907	3013095.938731303732	14
1	177908	3013119.634461521075	13
1	177913	3013205.914181936285	14
1	177914	3013239.984296539395	13
1	177919	3013258.358630647222	12
1	177925	3013349.318650701784	13
1	177927	3013355.965313969198	14
1	177929	3013381.504477926269	15
1	177930	3013394.947665904438	14
1	177935	3013400.855667073472	13
1	177940	3013508.041309550409	14
1	177941	3013607.172210261424	13
1	177947	3013910.120615069991	14
1	177949	3013923.610088958858	15
1	177950	3013993.354203319221	14
1	177953	3013999.41047718446	15
1	177959	3014059.932018599288	16
1	177961	3014183.781451838896	17
1	177962	3014204.556567548207	16
1	177967	3014210.383312478331	15
1	177972	3014220.840902001754	14
1	177978	3014326.6934998814	13
1	177981	3014328.296740324822	12
1	177988	3014350.390275611653	11
1	177993	3014419.939410731863	10
1	177998	3014511.661207929044	9
1	178004	3014525.140097256227	10
1	178006	3014539.075536376907	11
1	178007	3014566.854086179844	10
1	178012	3014597.058037234324	9
1	178017	3014610.98248052182	8
1	178022	3014630.525493974395	7
1	178027	3014633.918809850242	6
1	178032	3014673.032202279871	5
1	178037	3014705.93967815442	4
1	178042	3014721.637707330274	3
1	178047	3014731.58197519993	2
1	178052	3014804.13492805206	1
1	178058	3014805.656504864121	2
1	178059	3014835.676979520103	1
1	178064	3014853.56906671536	0
1	178077	3015033.824535043826	1
1	178078	3015036.010722065624	0
1	178105	3015246.317612106019	1
1	178106	3015274.941374485274	0
1	178154	3016003.622524756684	1
1	178155	3016030.886777959154	0
1	178231	3017769.217937323418	1
1	178232	3017787.429659456949	0
1	178273	3018698.433336015812	1
1	178275	3018699.009895419939	2
1	178276	3018749.086159527118	1
1	178282	3018756.916447719943	2
1	178283	3018782.132318907438	1
1	178288	3018815.319244579025	0
1	178322	3019564.436172676828	1
1	178323	3019628.275238953009	0
1	178357	3019988.760681780123	1
1	178358	3020008.92812864022	0
1	178364	3020055.064578666252	1
1	178365	3020056.914307947544	0
1	178420	3021364.926249174012	1
1	178422	3021400.844030214202	2
1	178423	3021407.279195487903	1
1	178428	3021440.391226603887	0
1	178434	3021448.429269713629	1
1	178436	3021539.801704440026	2
1	178437	3021563.983295947499	1
1	178442	3021589.665931677977	0
1	178490	3022697.656228493622	1
1	178491	3022763.807086527621	0
1	178533	3024158.704756317075	1
1	178534	3024212.805971989423	0
1	178540	3024345.642066796816	1
1	178542	3024475.160405047119	2
1	178544	3024541.993745414774	3
1	178546	3024572.721011918257	4
1	178547	3024574.762997782909	3
1	178551	3024680.713991910833	2
1	178557	3024916.103427012766	3
1	178559	3024980.147474298319	4
1	178561	3024986.922102261269	5
1	178563	3025001.877138267486	6
1	178564	3025071.938943339688	5
1	178570	3025178.855713130096	6
1	178572	3025208.364193282408	7
1	178574	3025257.712698435312	8
1	178576	3025328.356314850297	9
1	178578	3025341.216134344083	10
1	178580	3025343.897806349127	11
1	178582	3025437.847369075214	12
1	178584	3025636.297274289758	13
1	178586	3025792.898477059391	14
1	178588	3025953.812191339246	15
1	178589	3025985.850941039281	14
1	178595	3026170.926964202377	15
1	178597	3026237.959514964709	16
1	178599	3026245.826385814173	17
1	178601	3026338.852075301024	18
1	178603	3026412.131915923251	19
1	178604	3026444.758821024759	18
1	178609	3026535.074000431039	19
1	178610	3026545.361740751166	18
1	178615	3026573.789629473483	19
1	178616	3026575.759235363384	18
1	178620	3026708.802246824203	17
1	178624	3026846.806681095518	16
1	178626	3026872.712353020495	15
1	178631	3026891.79639246285	14
1	178636	3026908.313394912859	13
1	178641	3026972.243332826	12
1	178647	3026995.825483531444	13
1	178648	3027001.59395604989	12
1	178653	3027012.112111491143	11
1	178659	3027036.629219667591	12
1	178660	3027044.156958436207	11
1	178665	3027085.589575871419	10
1	178671	3027090.49876471102	11
1	178676	3027169.425119619036	10
1	178681	3027174.379960793323	9
1	178687	3027239.209928944194	10
1	178688	3027264.16158867245	9
1	178693	3027364.480473602133	8
1	178698	3027430.612424288057	7
1	178703	3027446.451954427893	6
1	178707	3027447.102295863366	7
1	178710	3027459.934136430955	6
1	178716	3027540.131335087714	7
1	178718	3027548.412865267314	8
1	178719	3027569.708575441486	7
1	178724	3027608.357579387609	6
1	178730	3027626.765248490567	7
1	178731	3027638.601741784412	6
1	178736	3027639.099648234222	5
1	178741	3027640.272865700211	4
1	178746	3027643.695665279102	3
1	178751	3027655.777534439802	2
1	178756	3027659.730920189028	1
1	178761	3027678.622260855573	0
1	178775	3028029.17179069869	1
1	178776	3028078.32881559982	0
1	178782	3028188.855838716899	1
1	178783	3028217.012983135686	0
1	178789	3028263.209806177537	1
1	178791	3028310.488247295949	2
1	178793	3028374.198981804659	3
1	178795	3028551.377104849084	4
1	178797	3028632.65815547768	5
1	178799	3028670.870638998821	6
1	178800	3028740.770089853434	5
1	178805	3028846.975112771723	4
1	178810	3028866.561183925505	5
1	178812	3028926.144911125503	6
1	178813	3029016.353932829077	5
1	178818	3029272.302701980857	4
1	178822	3029274.007742606267	5
1	178826	3029301.12102292674	6
1	178828	3029526.666991550889	7
1	178829	3029605.091607983966	6
1	178835	3029804.414339215714	7
1	178837	3029867.444404523239	8
1	178838	3029954.439052036945	7
1	178843	3029982.479364008199	8
1	178844	3029998.853650285	7
1	178849	3030016.017279533784	6
1	178854	3030100.13114680525	5
1	178860	3030121.52630685582	6
1	178862	3030204.627702357395	7
1	178863	3030355.347977226482	6
1	178868	3030385.346133362484	5
1	178873	3030536.13789988293	6
1	178874	3030581.12892505191	5
1	178880	3030726.277037634792	6
1	178882	3030730.837959735812	7
1	178884	3030779.646205278753	8
1	178885	3030824.993245058813	7
1	178890	3030898.240867399804	8
1	178891	3030899.053697991582	7
1	178897	3030906.053308724601	8
1	178898	3031029.713973858922	7
1	178903	3031060.116511493313	8
1	178905	3031181.317843118423	9
1	178907	3031266.828167631588	10
1	178909	3031308.91446668091	11
1	178911	3031339.833922883751	12
1	178912	3031347.555707212785	11
1	178917	3031424.677971385868	10
1	178924	3031530.176152434231	9
1	178929	3031534.691914016478	8
1	178934	3031605.56812159812	7
1	178940	3031607.739286694178	8
1	178941	3031638.784048652795	7
1	178946	3031643.161761627086	6
1	178952	3031652.0081600993	7
1	178954	3031696.054864982593	8
1	178955	3031706.694911069893	7
1	178960	3031727.564946895569	6
1	178965	3031748.81474465876	5
1	178970	3031755.049943121286	4
1	178975	3031815.074589383591	3
1	178981	3031898.574939784325	4
1	178982	3031943.847142958285	3
1	178988	3032020.48341461261	4
1	178989	3032079.169267063056	3
1	178994	3032087.912718664909	2
1	179000	3032149.051364744328	1
1	179002	3032151.280580153743	0
1	179019	3032280.597108055714	1
1	179020	3032286.922867885258	0
1	179075	3033400.366832885005	1
1	179077	3033431.270114471471	2
1	179078	3033432.701964113528	1
1	179083	3033458.685018177159	0
1	179131	3034997.60420177027	1
1	179132	3035117.283054169536	0
1	179166	3036085.595218075002	1
1	179167	3036100.049517607956	0
1	179208	3036579.377909963979	1
1	179209	3036587.291392467897	0
1	179286	3038369.748410553809	1
1	179288	3038430.530142022817	2
1	179289	3038471.783964848929	1
1	179295	3038514.792054140203	2
1	179297	3038615.369325735665	3
1	179299	3038674.467742971804	4
1	179301	3038802.710156550985	5
1	179303	3039122.561598836469	6
1	179304	3039134.778519134408	5
1	179310	3039197.441347882879	6
1	179312	3039198.576515603251	7
1	179314	3039211.015100853993	8
1	179315	3039254.632574610299	7
1	179321	3039406.376511148989	8
1	179323	3039411.825990095497	9
1	179325	3039555.450236648572	10
1	179327	3039735.627392256565	11
1	179329	3039779.639444278677	12
1	179331	3039807.367790755523	13
1	179332	3039914.684579676432	12
1	179338	3039924.872396653905	13
1	179340	3040064.259806782362	14
1	179341	3040170.290333150097	13
1	179346	3040223.923409203261	12
1	179350	3040246.833132733923	11
1	179354	3040291.85942771426	10
1	179360	3040384.915125120289	11
1	179361	3040389.194154388049	10
1	179363	3040391.720098664903	9
1	179369	3040397.396103194852	10
1	179370	3040441.904810170243	9
1	179373	3040443.950648580486	8
1	179381	3040453.327307776248	9
1	179386	3040503.208798350668	8
1	179391	3040527.049001530763	7
1	179396	3040539.216761580089	6
1	179402	3040551.245025204481	7
1	179403	3040603.191616236646	6
1	179409	3040650.724621448436	7
1	179410	3040691.739483244293	6
1	179415	3040699.629237901719	5
1	179420	3040714.763329715367	4
1	179425	3040761.11993432801	3
1	179430	3040761.827497115966	2
1	179435	3040767.098232170255	1
1	179440	3040792.57849198456	0
1	179516	3042211.777442805827	1
1	179517	3042216.419645142365	0
1	179530	3042302.32286989895	1
1	179532	3042330.937129186388	2
1	179534	3042341.11983883145	3
1	179536	3042349.659340803725	4
1	179538	3042355.484266116301	5
1	179539	3042356.792555258483	4
1	179544	3042360.274662507956	3
1	179549	3042414.511941318835	2
1	179555	3042416.442426748082	3
1	179556	3042479.546767059506	2
1	179561	3042507.963486032125	1
1	179566	3042563.985306326856	0
1	179635	3043347.899942958798	1
1	179637	3043367.486242828718	2
1	179638	3043432.409378185699	1
1	179643	3043489.049848528662	0
1	179663	3043827.304385683717	1
1	179664	3043859.235573399664	0
1	179677	3043942.232664495973	1
1	179678	3043952.468663223119	0
1	179698	3044489.973403628776	1
1	179700	3044498.965456826954	2
1	179701	3044519.033376157045	1
1	179707	3044588.220040532108	2
1	179708	3044630.907989081819	1
1	179713	3044783.648423135956	0
1	179747	3045707.718992024351	1
1	179749	3045713.949274874992	2
1	179750	3045736.803171582216	1
1	179755	3045778.284355511566	0
1	179782	3046137.824785143396	1
1	179783	3046162.062017841126	0
1	179817	3046799.952945481975	1
1	179819	3046856.7837414824	2
1	179820	3046866.31864722398	1