version 2
run Simulations-43-20191218-11:09:20-65753
attr configname Simulations
attr datetime 20191218-11:09:20
attr experiment Simulations
attr inifile omnetpp.ini
attr iterationvars "$seed=25, $0=9600"
attr iterationvarsf seed=25,9600-
attr measurement "$seed=25, $0=9600"
attr network WifiCelNetPassiveQueue
attr processid 65753
attr repetition 0
attr replication #0
attr resultdir results/Simulations/omnet
attr runnumber 43
attr seedset 25
itervar seed 25
param **.numJobs 10000
param *.OFFLOAD.deadline exponential(9600s)
param *.source.interArrivalTime exponential(120s)
param *.WIFI.serviceTime exponential(40s)
param *.CELL.serviceTime exponential(400s)
param *.OFFLOAD.switchToWi exponential(1524s)
param *.OFFLOAD.switchToCel exponential(3120s)
param *.LOCAL.serviceTime exponential(5s)
param *.REMOTE.serviceTime exponential(1s)

vector 0 WifiCelNetPassiveQueue.WIFI serviceTime:vector ETV
attr interpolationmode none
attr title "wifi Service, vector"
attr unit s
vector 1 WifiCelNetPassiveQueue.WIFI responseTime:vector ETV
attr interpolationmode none
attr title "Response Time, vector"
attr unit s
vector 2 WifiCelNetPassiveQueue.OFFLOAD queueLength:vector ETV
attr interpolationmode sample-hold
attr title "queue length, vector"
vector 3 WifiCelNetPassiveQueue.REMOTE serviceTime:vector ETV
attr interpolationmode none
attr title "wifi Service, vector"
attr unit s
vector 4 WifiCelNetPassiveQueue.REMOTE responseTime:vector ETV
attr interpolationmode none
attr title "Response Time, vector"
attr unit s
vector 5 WifiCelNetPassiveQueue.sink lifeTime:vector ETV
attr interpolationmode none
attr title "lifetime of arrived jobs, vector"
attr unit s
vector 6 WifiCelNetPassiveQueue.OFFLOAD storeCelTime:vector ETV
attr interpolationmode none
attr title "Time in Cell, vector"
attr unit s
vector 7 WifiCelNetPassiveQueue.OFFLOAD storeDeadline:vector ETV
attr interpolationmode none
attr title "deadline, vector"
attr unit s
vector 8 WifiCelNetPassiveQueue.CELL serviceTime:vector ETV
attr interpolationmode none
attr title "wifi Service, vector"
attr unit s
vector 9 WifiCelNetPassiveQueue.CELL responseTime:vector ETV
attr interpolationmode none
attr title "Response Time, vector"
attr unit s
vector 10 WifiCelNetPassiveQueue.LOCAL serviceTime:vector ETV
attr interpolationmode none
attr title "wifi Service, vector"
attr unit s
vector 11 WifiCelNetPassiveQueue.LOCAL responseTime:vector ETV
attr interpolationmode none
attr title "Response Time, vector"
attr unit s
vector 12 WifiCelNetPassiveQueue.OFFLOAD storeWifiTime:vector ETV
attr interpolationmode none
attr title "Time in Wifi, vector"
attr unit s
vector 13 WifiCelNetPassiveQueue.REMOTE queueLength:vector ETV
attr interpolationmode sample-hold
attr title "queue length, vector"
vector 14 WifiCelNetPassiveQueue.LOCAL queueLength:vector ETV
attr interpolationmode sample-hold
attr title "queue length, vector"
0	175608	3000025.679474856841	80.350358333036
0	175613	3000026.362380801994	0.682905945153
0	175622	3000146.947005121672	101.40178251753
0	175627	3000162.200802185122	15.25379706345
0	175636	3000284.465917540229	25.481896075376
0	175641	3000312.060395098826	27.594477558597
0	175648	3000408.582327617229	48.195185710821
0	175655	3000575.932164909689	1.240700178847
0	175662	3000623.367467549181	44.773029473661
0	175671	3000721.026025090646	87.214287019539
0	175676	3000724.597678026025	3.571652935379
0	175683	3000814.31860335416	9.061093953143
0	175690	3000865.176136989509	15.168954191408
0	175697	3000956.431251320289	90.265569519092
0	175704	3001016.48087931412	46.33988254401
0	175711	3001127.636585599293	38.902391566662
0	175718	3001207.579582650545	26.058029591321
0	175725	3001347.682319989104	13.440272813138
0	175732	3001365.503970399001	8.509587301772
0	175739	3001437.289333897022	15.932672228997
0	175746	3001655.216491476291	40.610852415462
0	175753	3001663.821071161446	1.214838244488
0	175760	3001777.122587758141	16.450794080831
0	175767	3001863.442738485284	13.492412270874
0	175778	3002060.632451245233	39.869188976103
0	175783	3002096.615585108799	35.983133863566
0	175788	3002164.347362442312	67.731777333513
0	175795	3002335.998186693298	17.524723346608
0	175802	3002473.823679282153	36.10631665786
0	175809	3002513.78402095333	3.548178167745
0	175862	3004274.762121035779	39.464175148619
0	175871	3004328.338636807577	53.576515771798
0	175876	3004423.517323798923	95.178686991346
0	175881	3004435.277933777577	11.760609978654
0	175886	3004457.613428926501	22.335495148924
0	175891	3004468.173310239822	10.559881313321
0	175896	3004493.092516525761	24.919206285939
0	175901	3004574.52248593626	81.429969410499
0	175906	3004592.23369041985	17.71120448359
0	175911	3004651.889099067654	59.655408647804
0	175916	3004665.39308199983	13.503982932176
0	175923	3004671.647650154968	6.254568155138
0	175928	3004700.583138735943	28.935488580975
0	175933	3004701.911348520921	1.328209784978
0	175936	3004702.081681915682	0.170333394761
0	175945	3004780.723878537737	78.642196622055
0	175950	3004784.411287682207	3.68740914447
0	175959	3005244.824884118149	104.38967947374
0	175964	3005250.816301511595	5.991417393446
0	175971	3005451.894243998028	23.929580466214
0	175978	3005469.31401494501	11.458773331888
0	175987	3005488.862740858644	14.653246458216
0	175992	3005505.68918353898	16.826442680336
0	175999	3005602.30262924468	8.300991967133
0	176006	3005630.676186986208	1.868426924029
0	176013	3005697.916765082986	5.378809054666
0	176020	3005736.932530325802	1.886137374906
0	176027	3005830.97445379546	46.578098525644
0	176036	3005980.955595525454	48.087646717577
0	176041	3006000.958464670687	20.002869145233
0	176050	3006084.04412892303	42.987096594871
0	176055	3006106.655880288583	22.611751365553
0	176062	3006182.594748822931	10.593968687951
0	176071	3006935.792972289979	22.653308561236
0	176080	3007106.173721499956	40.977185449191
0	176085	3007209.230989452705	103.05726795275
0	176094	3007342.906576141998	124.37611307329
0	176103	3007499.63908967789	156.73251353589
0	176110	3007596.327618747957	96.688529070067
0	176115	3007640.233872769848	43.906254021891
0	176120	3007685.383178044885	45.149305275037
0	176127	3007806.443659715153	2.979081026587
0	176134	3007932.387518686506	28.385748264684
0	176143	3008141.008966596866	80.021870077015
0	176148	3008163.939263049621	22.930296452755
0	176155	3008232.223290709646	12.435781783277
0	176162	3008298.444471866225	1.493019660059
0	176171	3008557.321976859937	79.778806559083
0	176176	3008591.29834410056	33.976367240623
0	176185	3008662.857163326982	20.129311191733
0	176190	3008684.40380370876	21.546640381778
0	176197	3008879.079566398566	125.86662855
0	176258	3009995.908337660537	11.909811244398
0	176269	3010177.697901687818	83.662185304066
0	176278	3010254.2603626922	25.755876251206
0	176283	3010269.712298147403	15.451935455203
0	176290	3010505.184597058593	18.488526122382
0	176297	3010790.354444866722	11.456033174009
0	176306	3010880.692554573727	50.304461547534
0	176311	3010883.23412982416	2.541575250433
0	176318	3011536.592189419736	236.57540698295
0	176327	3011965.953182146532	75.558873441228
0	176332	3011986.342651637601	20.389469491069
0	176345	3012522.579190852382	161.02638391946
0	176348	3012526.349571163081	3.770380310699
0	176357	3012554.265462440284	27.915891277203
0	176362	3012583.513037264255	29.247574823971
0	176367	3012592.461641166101	8.948603901846
0	176374	3012644.895056956492	7.656810927831
0	176383	3012878.219780995674	26.472345298506
0	176388	3012887.829075891029	9.609294895355
0	176395	3012935.774014838934	26.003735649381
0	176402	3013056.008606682268	20.162339262354
0	176409	3013102.987434596117	14.637984573194
0	176418	3013153.047473092805	33.748743524852
0	176423	3013315.513032448744	162.46555935594
0	176430	3013425.269624666575	59.075754288715
0	176441	3013567.917663955331	130.96268768155
0	176448	3013580.800100637873	12.882436682542
0	176453	3013589.182490653172	8.382390015299
0	176460	3013605.120551953182	15.93806130001
0	176465	3013617.278654473314	12.158102520132
0	176472	3013812.517303138318	143.26095501456
0	176483	3013920.87813998661	81.21838901734
0	176488	3013977.109958955228	56.231818968618
0	176495	3013991.802310632674	14.692351677446
0	176500	3014031.063839691595	39.261529058921
0	176507	3014218.67872137376	2.705135630841
0	176514	3014223.721584769371	2.580309005343
0	176523	3014326.991602691854	32.429402857293
0	176528	3014336.57519114359	9.583588451736
0	176535	3014486.167601900856	37.797044679384
0	176542	3014748.543627489356	36.230813589086
0	176549	3014867.12143712934	61.279380802843
0	176560	3015303.870042353882	157.42264199577
0	176567	3015344.150165389552	40.28012303567
0	176574	3015405.395266126532	61.24510073698
0	176579	3015410.852371234746	5.457105108214
0	176584	3015468.824026458169	57.971655223423
0	176688	3019847.424550727603	15.677651160564
0	176695	3019891.898014910663	44.47346418306
0	176706	3019928.517208022397	36.619193111734
0	176711	3019945.654939572704	17.137731550307
0	176714	3019946.072895205146	0.417955632442
0	176723	3019984.592961801902	38.520066596756
0	176728	3019992.467164138302	7.8742023364
0	176733	3020007.132776740014	14.665612601712
0	176739	3020023.104266451118	15.971489711104
0	176744	3020032.855222161799	9.750955710681
0	176749	3020069.897708693556	37.042486531757
0	176754	3020101.509824390208	31.612115696652
0	176763	3020133.767810038616	32.257985648408
0	176768	3020165.586484550238	31.818674511622
0	176773	3020187.120372503412	21.533887953174
0	176778	3020218.769234038142	31.64886153473
0	176783	3020233.601488847866	14.832254809724
0	176788	3020297.008338435808	63.406849587942
0	176793	3020336.664850049072	39.656511613264
0	176800	3020366.916348842697	9.836394014311
0	176807	3020398.613931427951	0.185360836188
0	176816	3020594.376320950108	7.446220410739
0	176821	3020670.687795681566	76.311474731458
0	176828	3020772.79315793492	75.826746844362
0	176839	3020992.256661367607	214.1305551194
0	176844	3021002.998843072754	10.742181705147
0	176849	3021012.371229089753	9.372386016999
0	176856	3021117.946387677153	5.518613447567
0	176863	3021332.986836039898	12.151694869659
0	176870	3021352.733184103434	10.372313258303
0	176877	3021478.601748928552	23.389209008286
0	176902	3022185.107818128934	40.452415368439
0	176907	3022203.751601303418	18.643783174484
0	176912	3022207.174364623206	3.422763319788
0	176917	3022209.653072330841	2.478707707635
0	176928	3022352.543237904467	39.252029203524
0	176937	3022389.161141998266	4.244924660069
0	176942	3022391.811759974628	2.650617976362
0	176949	3022590.743023060457	54.150419872504
0	176956	3022667.942922174208	54.701097747342
0	176963	3022904.281877711523	37.293604600559
0	176970	3023150.059848470028	118.10372569856
0	176977	3023273.454175681994	45.096456306394
0	176988	3023520.139822798441	32.236309602296
0	176993	3023585.606930221181	65.46710742274
0	176998	3023616.051006237841	30.44407601666
0	177005	3023736.569248065056	44.895890398895
0	177012	3023780.052011370504	41.833639574252
0	177019	3023826.022426254806	13.93664650628
0	177030	3024108.104997887397	224.54061203733
0	177035	3024120.952774806145	12.847776918748
0	177040	3024152.77077886755	31.818004061405
0	177047	3024236.285353136977	42.722236939114
0	177056	3024410.945486989359	103.33022525309
0	177063	3024526.240605840709	115.29511885135
0	177068	3024538.92692034407	12.686314503361
0	177075	3024846.639940316818	51.308718709035
0	177082	3024868.43159134783	3.867427122803
0	177091	3024952.148834623656	72.289414375907
0	177100	3024979.551228712882	27.402394089226
0	177107	3025101.894339232959	122.34311052008
0	177112	3025184.569187344397	82.674848111438
0	177117	3025200.77446216093	16.205274816533
0	177124	3025310.917621599031	0.355247853621
0	177131	3025471.906532330174	14.87738408969
0	177138	3025646.652104634419	28.587803062641
0	177150	3025949.190277650224	6.118061169198
0	177157	3026098.744207108233	64.611429109089
0	177164	3026441.400843008894	30.257351689149
0	177171	3026739.470173362317	77.998525581092
0	177188	3027138.427285145833	114.56947559649
0	177193	3027183.56713434041	45.139849194577
0	177198	3027202.807607037606	19.240472697196
0	177203	3027249.985771262397	47.178164224791
0	177210	3027317.417486820192	35.836944199314
0	177217	3027420.125649704523	44.951609450157
0	177233	3027863.327014126144	59.141920870053
0	177240	3027940.81331521822	41.713524328041
0	177247	3028231.168433064851	74.745262177032
0	177254	3028421.859076939247	19.381985467484
0	177261	3028481.472468966777	9.152942438885
0	177268	3028521.878212831106	18.706941264904
0	177276	3028605.793220767295	20.537643831656
0	177366	3030805.849422501431	9.172297939871
0	177371	3030823.495100811715	17.645678310284
0	177383	3031040.451914167295	216.95681335558
0	177388	3031056.766520028316	16.314605861021
0	177393	3031063.965011203914	7.198491175598
0	177398	3031172.621442715355	108.65643151144
0	177403	3031296.71339572194	124.09195300659
0	177412	3031393.528027803329	96.814632081389
0	177421	3031483.012872539466	89.484844736137
0	177427	3031515.275170134027	32.262297594561
0	177434	3031553.844919815639	38.569749681612
0	177441	3031628.614904739713	74.769984924074
0	177446	3031643.557187379318	14.942282639605
0	177451	3031800.329814860103	156.77262748078
0	177456	3031841.588652431845	41.258837571742
0	177461	3031884.156466549112	42.567814117267
0	177466	3031937.040830630498	52.884364081386
0	177471	3031958.180679533052	21.139848902554
0	177478	3032015.344756001376	57.164076468324
0	177483	3032048.016432333979	32.671676332603
0	177488	3032048.68762409781	0.671191763831
0	177493	3032055.72596673635	7.03834263854
0	177700	3037001.243355286739	49.740336870508
0	177705	3037016.244708848813	15.001353562074
0	177710	3037041.832680734027	25.587971885214
0	177715	3037157.560279414209	115.72759868018
0	177720	3037211.939550609067	54.379271194858
0	177725	3037216.14237608123	4.202825472163
0	177728	3037216.250258859914	0.107882778684
0	177737	3037281.476442111936	65.226183252022
0	177742	3037295.226345985585	13.749903873649
0	177747	3037305.563868486583	10.337522500998
0	177752	3037322.263787776288	16.699919289705
0	177757	3037367.328476589464	45.064688813176
0	177762	3037372.979441707914	5.65096511845
0	177767	3037382.907085493263	9.927643785349
0	177772	3037402.274724722186	19.367639228923
0	177777	3037471.1510472902	68.876322568014
0	177784	3037537.17310095479	66.02205366459
0	177789	3037545.979616641275	8.806515686485
0	177794	3037571.257088046428	25.277471405153
0	177805	3037632.10236998031	60.845281933882
0	177814	3037696.790491249997	64.688121269687
0	177821	3037734.761919454959	37.971428204962
0	177832	3037804.408426142959	69.646506688
0	177837	3037827.283157270085	22.874731127126
0	177842	3037858.004322973788	30.721165703703
0	177847	3037900.18833210928	42.184009135492
0	177852	3037930.352478232909	30.164146123629
0	177859	3037941.022624794652	10.670146561743
0	177864	3037966.468818085472	25.44619329082
0	177871	3038058.049893884612	91.58107579914
0	177878	3038079.371478837868	21.321584953256
0	177883	3038096.406494891879	17.035016054011
0	177888	3038135.987725550072	39.581230658193
0	177893	3038167.265846851959	31.278121301887
0	177898	3038182.337514746266	15.071667894307
0	177903	3038185.202725730953	2.865210984687
0	177908	3038191.815714152685	6.612988421732
0	177913	3038203.801631216264	11.985917063579
0	177918	3038216.418528720497	12.616897504233
0	177923	3038295.710509962447	79.29198124195
0	177928	3038302.436045666348	6.725535703901
0	177933	3038338.98347785663	36.547432190282
0	177940	3038352.368427739978	13.384949883348
0	177945	3038356.395812052822	4.027384312844
0	177950	3038357.943367458313	1.547555405491
0	177959	3038435.068720607796	35.229660686025
0	177964	3038482.767927886434	47.699207278638
0	177971	3038559.792201032933	5.600202841754
0	178062	3041904.612941682214	68.756283982288
0	178067	3041905.405559882633	0.792618200419
0	178072	3041924.234601194547	18.829041311914
0	178077	3041931.121972287013	6.887371092466
0	178084	3041964.425969236244	33.303996949231
0	178089	3041997.289659782171	32.863690545927
0	178096	3042009.009742567466	11.720082785295
0	178101	3042028.036254178806	19.02651161134
0	178113	3042206.051815073091	178.01556089428
0	178118	3042242.830392120855	36.778577047764
0	178125	3042318.890380827777	76.059988706922
0	178130	3042329.593722866753	10.703342038976
0	178135	3042331.534180668233	1.94045780148
0	178140	3042353.894796261458	22.360615593225
0	178145	3042425.410526042406	71.515729780948
0	178150	3042494.791241842396	69.38071579999
0	178155	3042501.8150927582	7.023850915804
0	178162	3042558.141510451056	56.326417692856
0	178171	3042813.281557643739	255.14004719268
0	178176	3042886.302362841544	73.020805197805
0	178181	3042933.148568848997	46.846206007453
0	178186	3042979.932574472946	46.784005623949
0	178191	3043199.068217752674	219.13564327973
0	178198	3043353.231786458951	16.31072951369
0	178205	3043362.20983816805	2.695338274179
0	178214	3043522.873521106608	151.94484275115
0	178223	3043551.818750199928	28.94522909332
0	178228	3043552.78813888983	0.969388689902
0	178235	3043584.743455917524	31.955317027694
0	178240	3043613.204391488664	28.46093557114
0	178249	3043745.776334442702	78.716354192059
0	178256	3043781.349215168269	35.572880725567
0	178261	3043801.166988157175	19.817772988906
0	178268	3043856.972015492024	15.895568669949
0	178275	3044065.52099076868	56.255574234923
0	178325	3045756.927909842432	38.832288401573
0	178330	3045776.235757004316	19.307847161884
0	178335	3045900.993352925723	124.75759592141
0	178340	3046010.439133263988	109.44578033826
0	178345	3046014.766900617955	4.327767353967
0	178352	3046042.324320529008	27.557419911053
0	178355	3046043.152284405716	0.827963876708
0	178362	3046057.460091299388	14.307806893672
0	178369	3046342.412244098087	125.29407734573
0	178376	3046491.030605797652	4.388170003243
0	178383	3046533.958319065584	9.064521291195
0	178390	3046819.941488147729	44.245019811573
0	178397	3047130.857623518537	16.114230948801
0	178404	3047257.074909396712	36.489729616036
0	178411	3047403.80120152753	4.690940474675
0	178418	3047528.639121778056	84.762562923689
0	178425	3047807.699110965386	0.463349043895
0	178450	3048547.396699888665	5.096144821013
0	178455	3048591.546081661663	44.149381772998
0	178462	3048684.985594531114	93.439512869451
0	178467	3048775.922150214914	90.9365556838
0	178472	3048778.676381030735	2.754230815821
0	178481	3048880.271226745684	84.897727515354
0	178486	3048959.874790017262	79.603563271578
0	178495	3049060.388066936519	55.321796047296
0	178502	3049213.681138358837	153.29307142232
0	178507	3049243.333112679841	29.651974321004
0	178514	3049262.949559869034	13.164295080888
0	178525	3049523.241582489613	190.73696140287
0	178536	3049651.600847574833	128.35926508522
0	178541	3049689.718572409813	38.11772483498
0	178546	3049696.008663740414	6.290091330601
0	178551	3049762.342773211519	66.334109471105
0	178558	3049799.785236813522	37.442463602003
0	178563	3049808.419730756751	8.634493943229
0	178574	3049926.94176511578	15.48518057445
0	178581	3050042.471081842126	59.145216137856
0	178590	3050213.999883436659	39.264317351277
0	178595	3050301.200399119963	87.200515683304
0	178602	3050341.555319820553	2.312013353643
0	178609	3050473.026181801908	19.573913364232
0	178620	3050664.686006908359	183.41831861683
0	178629	3050864.700706602008	200.01469969365
0	178634	3050900.244473325589	35.543766723581
0	178639	3050902.249522243566	2.005048917977
0	178644	3050968.20267219663	65.953149953064
0	178653	3051152.041725465855	41.612611779254
0	178658	3051153.009138426654	0.967412960799
0	178665	3051406.595426369992	25.438020497825
0	178672	3051500.81792958495	4.155007301484
0	178679	3051610.674285507183	75.16441764898
0	178686	3051646.116016751662	7.386454480006
0	178693	3051771.194215609705	23.929310478125
0	178700	3051884.43921912786	105.10275542476
0	178707	3051929.834179402673	2.543100180431
0	178714	3052067.798389106055	12.899094866029
0	178721	3052134.269833343075	25.8825468068
0	178728	3052302.405258005168	79.460997997226
0	178735	3052349.212835032617	40.912387847036
0	178742	3052592.57686825047	2.932074724541
0	178751	3052855.43752250581	53.767040407557
0	178769	3053056.367381930924	200.92985942511
0	178905	3056696.692321901973	24.687228409836
0	178910	3056806.232927592644	109.54060569067
0	178915	3056888.968077158715	82.735149566071
0	178923	3056979.953130584186	90.985053425471
0	178975	3059051.919322755566	27.06869727116
0	178984	3059072.085032039662	20.165709284096
0	178989	3059079.114232989013	7.029200949351
0	178996	3059172.185282017917	93.071049028904
0	179001	3059190.715809246516	18.530527228599
0	179008	3059271.080845112642	80.365035866126
0	179015	3059297.41153577144	26.330690658798
0	179020	3059311.100636586059	13.689100814619
0	179025	3059334.828004162192	23.727367576133
0	179032	3059344.395970146032	9.56796598384
0	179041	3059379.391436722299	34.995466576267
0	179046	3059389.164885008378	9.773448286079
0	179053	3059431.555347268739	42.390462260361
0	179056	3059431.926348294508	0.371001025769
0	179063	3059459.547658992426	27.621310697918
0	179070	3059545.678493746408	86.130834753982
0	179079	3059578.665607334397	32.987113587989
0	179084	3059678.82054737505	100.15494004065
0	179089	3059709.728795328243	30.908247953193
0	179094	3059794.389664939187	84.660869610944
0	179101	3059827.537931913309	33.148266974122
0	179108	3059907.674349689634	80.136417776325
0	179113	3059910.14634750843	2.471997818796
0	179118	3059913.48523422006	3.33888671163
0	179123	3060031.105333822211	117.62009960215
0	179128	3060042.678628853114	11.573295030903
0	179133	3060059.874462223498	17.195833370384
0	179138	3060063.988981669264	4.114519445766
0	179147	3060383.623088928866	60.466672178594
0	179152	3060414.665349673539	31.042260744673
0	179159	3060488.383924393607	16.779396877054
0	179166	3060639.368863259057	10.969745540416
0	179175	3060764.59264014077	21.114398634756
0	179180	3060793.826568608499	29.233928467729
0	179189	3061173.53644259245	105.72349438208
0	179194	3061185.327793277782	11.791350685332
0	179201	3061197.854903411313	8.506645050795
0	179208	3061276.352819639859	14.296780380541
0	179215	3061398.717330702744	66.218212808742
0	179226	3061671.328913479244	157.01129004659
0	179231	3061677.21622175019	5.887308270946
0	179236	3061689.463908009606	12.247686259416
0	179243	3061770.477478436083	43.21430415584
0	179250	3061824.18282023884	16.293245614942
0	179257	3061953.549860229624	32.828055967055
0	179264	3062070.433747243494	68.286920446746
0	179271	3062198.918451839225	40.851181553415
0	179278	3062334.901765779906	36.558940985647
0	179366	3065422.843072522816	67.645041275503
0	179371	3065450.22819001241	27.385117489594
0	179376	3065465.372266219769	15.144076207359
0	179381	3065473.157977289464	7.785711069695
0	179390	3065520.890901296994	47.73292400753
0	179395	3065557.423981682243	36.533080385249
0	179402	3065601.816351083261	44.392369401018
0	179407	3065733.566557146726	131.75020606346
0	179412	3065745.822351183509	12.255794036783
0	179417	3065759.558649758417	13.736298574908
0	179422	3065768.726000521738	9.167350763321
0	179427	3065830.90602277403	62.180022252292
0	179432	3065870.979732625345	40.073709851315
0	179437	3065897.41042840478	26.430695779435
0	179442	3065922.354471473483	24.944043068703
0	179447	3065937.617268399401	15.262796925918
0	179452	3065970.965066724984	33.347798325583
0	179457	3065999.485843902054	28.52077717707
0	179462	3066054.863379847164	55.37753594511
0	179469	3066137.905371253206	83.041991406042
0	179474	3066166.957891154934	29.052519901728
0	179481	3066177.043517076476	10.085625921542
0	179486	3066196.638135986299	19.594618909823
0	179491	3066199.858971020325	3.220835034026
0	179496	3066213.228735431274	13.369764410949
0	179499	3066213.867213141079	0.638477709805
0	179508	3066277.535750932702	63.668537791623
0	179515	3066318.923974637551	41.388223704849
0	179520	3066334.692934299461	15.76895966191
0	179527	3066344.47386856603	9.257040730419
0	179534	3066508.784874373582	44.880806036862
0	179545	3066622.421255524053	22.663988600169
0	179554	3066747.219587421212	60.932313056672
0	179561	3066777.001299126528	29.781711705316
0	179566	3066800.563195556186	23.561896429658
0	179573	3066807.35229623225	6.535716021201
0	179582	3066902.161295901241	60.709708465341
0	179587	3066909.052671501393	6.891375600152
0	179594	3067133.035311261256	41.753600867597
0	179601	3067365.921004779253	38.408677315455
0	179608	3067502.103835834412	16.529980093335
0	179616	3067579.996800898264	48.490629814471
0	179636	3068391.5240581961	114.28428641509
0	179641	3068429.651405175131	38.127346979031
0	179648	3068580.273114302565	15.635209051448
0	179655	3068783.884373237996	66.929804992361
0	179662	3068882.193952155158	40.565996050028
0	179671	3069062.957339721649	154.23996974168
0	179676	3069078.306733346193	15.349393624544
0	179687	3069393.999068917583	68.80396866716
0	179694	3069520.51053957124	22.336125394502
0	179703	3069702.305417914477	25.95510077717
0	179708	3069747.424568980152	45.119151065675
0	179715	3069813.864489324577	49.140479218761
0	179736	3070344.50496818157	15.982005295605
0	179741	3070398.399905492125	53.894937310555
0	179748	3070475.254284760655	26.477836015095
0	179755	3070498.698764666026	22.51558709326
0	179762	3070590.536157269557	64.642558397307
0	179773	3070886.139938564361	43.164145846974
0	179782	3070935.476294434583	49.336355870222
0	179793	3071077.412166611282	141.9358721767
0	179800	3071096.582306142612	19.17013953133
0	179805	3071119.679141039803	23.096834897191
0	179808	3071120.948396189754	1.269255149951
0	179815	3071124.997068972891	4.048672783137
0	179822	3071198.444967174935	51.514112769347
0	179835	3071587.715074431167	91.284604071439
0	179840	3071594.859987416765	7.144912985598
0	179845	3071599.866227886118	5.006240469353
0	179850	3071601.00031443661	1.134086550492
0	179857	3071727.273775715116	28.459230261404
0	179864	3071801.644286802283	8.902739188937
0	179871	3072029.230222697743	49.8691924428
0	179880	3072163.391824109838	47.055041559999
0	179885	3072189.280597562137	25.888773452299
0	179892	3072259.100060982014	3.492779042719
0	179899	3072359.646469017872	3.501789538365
0	179906	3072801.89826818517	66.033445139543
0	179913	3072813.438433888423	2.888621261065
0	179920	3072950.235103700546	9.285005826172
0	179929	3073065.870709748072	49.202981183802
0	179934	3073067.367911460669	1.497201712597
0	179941	3073193.666404442845	86.946624797013
0	179948	3073345.972910286991	39.417455486991
0	179961	3073540.599679976368	55.29826177358
0	179972	3073614.849939278467	74.250259302099
0	179977	3073618.31922224881	3.469282970343
0	179982	3073629.820271260018	11.501049011208
0	179989	3073679.409427123043	49.589155863025
0	179994	3073718.565423448665	39.155996325622
0	179999	3073752.154134470147	33.588711021482
0	180004	3073764.800261945844	12.646127475697
0	180011	3073862.260415425612	6.97031737452
0	180022	3074022.213017321262	52.898519538683
0	180027	3074024.70942340699	2.496406085728
0	180034	3074041.044847009949	16.335423602959
0	180041	3074128.09801781613	87.053170806181
0	180046	3074161.900185025049	33.802167208919
0	180055	3074302.649916619393	57.845375865768
0	180064	3074358.379466497156	55.729549877763
0	180069	3074382.437832402117	24.058365904961
0	180074	3074387.063991757632	4.626159355515
0	180081	3074476.654273746084	0.867317610316
0	180090	3074575.496623386248	89.91864884866
0	180095	3074592.00996519901	16.513341812762
0	180102	3074681.077277420402	40.995768656204
0	180109	3074891.328652680516	35.723383672768
0	180116	3074917.292427214514	2.794532757612
0	180125	3075103.346007741179	34.352231459024
0	180130	3075119.566399862959	16.22039212178
0	180139	3075156.64575357187	30.489197111309
0	180148	3075253.19579949723	96.55004592536
0	180153	3075261.961134108745	8.765334611515
0	180160	3075371.345264019791	109.38412991105
0	180165	3075380.974538704354	9.629274684563
0	180176	3075666.476469825161	123.05960077417
0	180181	3075667.889913953302	1.413444128141
0	180188	3075734.748271091157	66.858357137855
0	180193	3075760.52372743729	25.775456346133
0	180200	3075807.231554861869	7.680928666239
0	180207	3075822.517405679937	13.214173684292
0	180214	3075902.315034075045	73.484565925406
0	180221	3076000.327432537855	28.189592023161
0	180230	3076103.507643205715	73.696929737544
0	180235	3076135.821591048198	32.313947842483
0	180242	3076181.34560710309	41.191494027887
0	180251	3076255.280961102961	44.395826771687
0	180258	3076316.899168712626	61.618207609665
0	180263	3076322.416607248904	5.517438536278
0	180270	3076351.323121053791	21.463877849822
0	180277	3076596.113732783818	34.722540848656
0	180286	3076609.815740657752	7.649060734716
0	180291	3076612.108022895502	2.29228223775
0	180298	3076647.201216013328	1.655259776583
0	180305	3076844.233880375098	20.498710888253
0	180312	3076958.218642820474	67.60889879873
0	180319	3077120.405414341866	59.712154608448
0	180330	3077318.445781223099	124.05064562181
0	180335	3077404.701739076827	86.255957853728
0	180340	3077421.07371746803	16.371978391203
0	180347	3077486.967433699523	16.67811632462
0	180354	3077612.77359993142	67.736176468243
0	180361	3077696.263839523907	40.047276992884
0	180370	3077756.602808954773	30.576743733329
0	180375	3077795.645717539964	39.042908585191
0	180382	3077813.979505764572	1.98096777784
0	180389	3077975.120162842243	0.154329111807
0	180398	3078104.026156836314	74.525741162731
0	180403	3078155.478577175569	51.452420339255
0	180412	3078517.915053769406	121.04074555741
0	180417	3078535.771583973963	17.856530204557
0	180428	3078618.307146127617	54.044914855747
0	180437	3078689.320747121797	71.01360099418
0	180442	3078693.938662584706	4.617915462909
0	180447	3078818.367809726057	124.42914714135
0	180452	3078834.195854944897	15.82804521884
0	180459	3079076.823405911589	110.03043043098
0	180466	3079298.997287174137	12.190446449973
0	180473	3079409.67526387937	18.674913703046
0	180480	3079437.435802937	7.144379830587
0	180487	3079848.054889269597	33.840723630713
0	180494	3080117.31840116157	52.676386555218
0	180502	3080637.579022957468	34.519145383787