version 2
run Simulations-46-20191218-11:09:21-65753
attr configname Simulations
attr datetime 20191218-11:09:21
attr experiment Simulations
attr inifile omnetpp.ini
attr iterationvars "$seed=25, $0=10800"
attr iterationvarsf seed=25,10800-
attr measurement "$seed=25, $0=10800"
attr network WifiCelNetPassiveQueue
attr processid 65753
attr repetition 0
attr replication #0
attr resultdir results/Simulations/omnet
attr runnumber 46
attr seedset 25
itervar seed 25
param **.numJobs 10000
param *.OFFLOAD.deadline exponential(10800s)
param *.source.interArrivalTime exponential(120s)
param *.WIFI.serviceTime exponential(40s)
param *.CELL.serviceTime exponential(400s)
param *.OFFLOAD.switchToWi exponential(1524s)
param *.OFFLOAD.switchToCel exponential(3120s)
param *.LOCAL.serviceTime exponential(5s)
param *.REMOTE.serviceTime exponential(1s)

vector 0 WifiCelNetPassiveQueue.WIFI serviceTime:vector ETV
attr interpolationmode none
attr title "wifi Service, vector"
attr unit s
vector 1 WifiCelNetPassiveQueue.WIFI responseTime:vector ETV
attr interpolationmode none
attr title "Response Time, vector"
attr unit s
vector 2 WifiCelNetPassiveQueue.REMOTE serviceTime:vector ETV
attr interpolationmode none
attr title "wifi Service, vector"
attr unit s
vector 3 WifiCelNetPassiveQueue.REMOTE responseTime:vector ETV
attr interpolationmode none
attr title "Response Time, vector"
attr unit s
vector 4 WifiCelNetPassiveQueue.sink lifeTime:vector ETV
attr interpolationmode none
attr title "lifetime of arrived jobs, vector"
attr unit s
vector 5 WifiCelNetPassiveQueue.OFFLOAD queueLength:vector ETV
attr interpolationmode sample-hold
attr title "queue length, vector"
vector 6 WifiCelNetPassiveQueue.OFFLOAD storeCelTime:vector ETV
attr interpolationmode none
attr title "Time in Cell, vector"
attr unit s
vector 7 WifiCelNetPassiveQueue.OFFLOAD storeDeadline:vector ETV
attr interpolationmode none
attr title "deadline, vector"
attr unit s
vector 8 WifiCelNetPassiveQueue.CELL serviceTime:vector ETV
attr interpolationmode none
attr title "wifi Service, vector"
attr unit s
vector 9 WifiCelNetPassiveQueue.CELL responseTime:vector ETV
attr interpolationmode none
attr title "Response Time, vector"
attr unit s
vector 10 WifiCelNetPassiveQueue.LOCAL serviceTime:vector ETV
attr interpolationmode none
attr title "wifi Service, vector"
attr unit s
vector 11 WifiCelNetPassiveQueue.LOCAL responseTime:vector ETV
attr interpolationmode none
attr title "Response Time, vector"
attr unit s
vector 12 WifiCelNetPassiveQueue.OFFLOAD storeWifiTime:vector ETV
attr interpolationmode none
attr title "Time in Wifi, vector"
attr unit s
vector 13 WifiCelNetPassiveQueue.REMOTE queueLength:vector ETV
attr interpolationmode sample-hold
attr title "queue length, vector"
vector 14 WifiCelNetPassiveQueue.LOCAL queueLength:vector ETV
attr interpolationmode sample-hold
attr title "queue length, vector"
0	176330	3000051.84850569188	28.935488580975
0	176341	3000228.557782174973	37.153371318291
0	176346	3000374.095589265232	145.53780709026
0	176351	3000377.782998409702	3.68740914447
0	176360	3000536.216309735805	104.38967947374
0	176365	3000542.207727129251	5.991417393446
0	176372	3000743.285669615684	23.929580466214
0	176379	3000760.705440562666	11.458773331888
0	176388	3000780.2541664763	14.653246458216
0	176393	3000797.080609156636	16.826442680336
0	176400	3000893.694054862336	8.300991967133
0	176407	3000922.067612603864	1.868426924029
0	176414	3000989.308190700642	5.378809054666
0	176421	3001028.323955943458	1.886137374906
0	176428	3001122.365879413116	46.578098525644
0	176437	3001272.34702114311	48.087646717577
0	176442	3001292.349890288343	20.002869145233
0	176451	3001375.435554540686	42.987096594871
0	176456	3001398.047305906239	22.611751365553
0	176463	3001473.986174440587	10.593968687951
0	176472	3002230.668812279766	26.137722933367
0	176477	3002279.042518469841	48.373706190075
0	176484	3002414.147614977702	47.91165729202
0	176491	3002498.104807524908	8.937293491652
0	176498	3002857.840058994993	59.500741103491
0	176505	3003178.482314667405	7.014657556042
0	176558	3005805.416344423318	27.409136740373
0	176563	3005807.236178024281	1.819833600963
0	176572	3005881.080297067848	73.844119043567
0	176577	3005896.308944917655	15.228647849807
0	176582	3005942.357940531629	46.048995613974
0	176587	3005987.128595102427	44.770654570798
0	176592	3005989.137050886613	2.008455784186
0	176597	3006007.140740663989	18.003689777376
0	176604	3006013.780237440049	6.63949677606
0	176617	3006184.190006030755	170.40976859071
0	176624	3006250.158267117274	65.968261086519
0	176629	3006286.837330439812	36.679063322538
0	176636	3006370.63881410314	83.801483663328
0	176641	3006397.075533012359	26.436718909219
0	176646	3006405.312968445826	8.237435433467
0	176653	3006483.139394510764	77.826426064938
0	176658	3006538.086964118772	54.947569608008
0	176663	3006556.575490241154	18.488526122382
0	176668	3006573.738717352314	17.16322711116
0	176677	3006678.259917820389	104.52120046807
0	176682	3006692.695478562964	14.435560742575
0	176687	3006715.116321489248	22.420842926284
0	176698	3006951.691728472201	236.57540698295
0	176703	3006991.672614713587	39.980886241386
0	176708	3007008.763886086174	17.091271372587
0	176717	3007169.790270005639	161.02638391946
0	176735	3007425.914032553383	256.12376254774
0	176781	3008623.153260461211	21.779446047345
0	176933	3013637.157051034509	32.687002747665
0	176938	3013662.393326078977	25.236275044468
0	176943	3013708.649882072746	46.256555993769
0	176946	3013708.831801377426	0.18191930468
0	176953	3013713.569665356096	4.73786397867
0	176960	3013803.103202948305	89.533537592209
0	176965	3013838.433993765585	35.33079081728
0	176970	3013901.75788316146	63.323889395875
0	176975	3013961.336039068239	59.578155906779
0	176980	3013961.649179285819	0.31314021758
0	176985	3013992.362316723531	30.713137437712
0	176990	3013998.714837542722	6.352520819191
0	176995	3014004.785564788871	6.070727246149
0	177000	3014073.226897525551	68.44133273668
0	177005	3014075.108996194804	1.882098669253
0	177014	3014194.788081901256	119.67908570645
0	177021	3014233.471198512139	38.683116610883
0	177028	3014292.475156613997	59.003958101858
0	177033	3014301.92625568625	9.451099072253
0	177038	3014326.045609992133	24.119354305883
0	177043	3014352.964283061845	26.918673069712
0	177048	3014374.463733500942	21.499450439097
0	177055	3014412.983800097698	38.520066596756
0	177062	3014428.232044949354	15.248244851656
0	177069	3014442.897657551066	14.665612601712
0	177074	3014451.688329125215	8.790671574149
0	177079	3014461.733703905779	10.045374780564
0	177084	3014491.316744800315	29.583040894536
0	177089	3014605.905310107589	114.58856530727
0	177094	3014607.745319975439	1.84000986785
0	177099	3014625.008308970225	17.262988994786
0	177108	3014649.812100152262	21.533887953174
0	177113	3014675.973616244093	26.161516091831
0	177120	3014810.938016717172	63.406849587942
0	177127	3015086.509528296997	31.656495196061
0	177142	3015232.818760159771	58.996192219043
0	177147	3015240.26498057051	7.446220410739
0	177152	3015251.621427411128	11.356446840618
0	177161	3015470.146169673346	27.053231719216
0	177166	3015482.091079189396	11.94490951605
0	177173	3015737.560091944829	51.486933409919
0	177180	3015831.23676786108	1.157470122698
0	177195	3015931.774965167374	69.469122313551
0	177202	3015969.392188192419	37.617223025045
0	177209	3016009.400022726548	40.007834534129
0	177214	3016025.382683848528	15.98266112198
0	177219	3016042.582700536041	17.200016687513
0	177224	3016061.419257808731	18.83655727269
0	177231	3016108.200487148084	46.781229339353
0	177236	3016109.390435293525	1.189948145441
0	177243	3016193.111683514394	55.052390778776
0	177250	3016262.241951379969	45.135671407517
0	177257	3016453.958539194269	18.643783174484
0	177264	3016666.463664978868	9.96785100004
0	177271	3016795.146396747171	128.38229280898
0	177278	3017212.829506280399	78.646715791764
0	177287	3017301.503360981478	49.564482882272
0	177292	3017302.516100396137	1.012739414659
0	177299	3017351.062787877313	14.709356268571
0	177306	3017502.975831687888	4.171140461634
0	177313	3017696.915757737545	34.007773269264
0	177320	3017776.745765940881	1.956967670923
0	177327	3018172.333480521896	43.233505156269
0	177334	3018266.920158718222	2.530814433414
0	177341	3018426.565380514437	65.46710742274
0	177348	3018582.887815387302	8.88981250475
0	177355	3018724.855290074431	59.5250591419
0	177362	3018848.301969786693	48.284067657477
0	177369	3018926.022258364284	0.503437512312
0	177376	3018987.83299581064	20.504235439829
0	177383	3019653.798373401539	12.847776918748
0	177390	3019973.973389509517	19.07175865118
0	177397	3020156.094469203516	105.73882616096
0	177404	3020236.936001457787	58.413647597892
0	177411	3020588.028722869424	99.515693250251
0	177418	3020865.420938892796	31.022552719573
0	177425	3020894.688914413762	22.231584730455
0	177436	3021122.166779845113	95.7832940347
0	177441	3021165.687627871461	43.520848026348
0	177444	3021166.140028859779	0.452400988318
0	177453	3021393.849794737639	122.34311052008
0	177460	3021509.819765630843	82.674848111438
0	177469	3021607.005304648162	52.005600565727
0	177474	3021614.857327473354	7.852022825192
0	177483	3021840.833960816728	90.75165778962
0	177494	3022059.840292598913	219.00633178218
0	177499	3022078.561634746208	18.721342147295
0	177504	3022084.679695915406	6.118061169198
0	177509	3022210.34993368894	125.67023777353
0	177518	3022459.423445534194	83.442718820493
0	177525	3022580.218832790233	120.79538725604
0	177530	3022591.861728859248	11.642896069015
0	177537	3022738.16428526723	1.311546689234
0	177544	3022740.581947215841	1.53770883817
0	177551	3022840.783753020273	19.240472697196
0	177558	3022861.479035402963	4.736013526093
0	177565	3023011.212374059103	12.934859507859
0	177572	3023119.818931214417	14.03058406523
0	177579	3023240.888680890921	0.245505391262
0	177586	3023508.939477782191	31.638232544696
0	177595	3023594.856982285772	85.774459999213
0	177602	3023676.874955813753	82.017973527981
0	177607	3023700.155767499129	23.280811685376
0	177614	3023895.504541820422	10.28391501277
0	177621	3024146.134668871115	27.361435123146
0	177628	3024193.340966915055	35.185053116369
0	177635	3024247.414360672322	51.146883577343
0	177642	3024384.547236876508	14.935474722281
0	177649	3024423.746854364048	12.54881718753
0	177852	3029656.390824692107	9.309004109321
0	177857	3029671.078755762726	14.687931070619
0	177862	3029715.264046481275	44.185290718549
0	177867	3029719.795145069145	4.53109858787
0	177874	3029758.39590701512	38.600761945975
0	177879	3029766.097527591333	7.701620576213
0	177882	3029766.568622418645	0.471094827312
0	177889	3029770.786122637476	4.217500218831
0	177894	3029785.448159518239	14.662036880763
0	177899	3029800.060405466016	14.612245947777
0	177904	3029878.387805940805	78.327400474789
0	177909	3029892.43519970641	14.047393765605
0	177914	3029902.624615537802	10.189415831392
0	177919	3029920.257492649187	17.632877111385
0	177926	3029950.767141504798	30.509648855611
0	177931	3029955.146372788693	4.379231283895
0	177938	3029980.064138576621	24.917765787928
0	177943	3029997.40725598097	17.343117404349
0	177948	3030018.026584260611	20.619328279641
0	177953	3030044.206404040498	26.179819779887
0	177958	3030060.751495116755	16.545091076257
0	177963	3030115.161337966694	54.409842849939
0	177970	3030126.959068427398	11.797730460704
0	177975	3030168.071664108522	41.112595681124
0	177986	3030374.057734193784	69.288274435306
0	177993	3030397.611522449091	23.553788255307
0	177998	3030417.856414455467	20.244892006376
0	178003	3030422.338328765485	4.481914310018
0	178010	3030452.471404630904	16.006759767038
0	178023	3030538.246748745642	23.922092860013
0	178028	3030585.495550026411	47.248801280769
0	178035	3031045.452554364453	101.44898869867
0	178042	3031148.921264003345	41.999369043267
0	178049	3031197.593189899123	21.638911766937
0	178056	3031439.421520847394	2.303937627495
0	178063	3031618.000964627441	63.869892826118
0	178072	3031943.625346561165	177.80095183914
0	178077	3031952.220912708658	8.595566147493
0	178129	3033174.647078627858	4.202825472163
0	178132	3033174.754961406542	0.107882778684
0	178139	3033239.981144658564	65.226183252022
0	178144	3033270.757297288441	30.776152629877
0	178149	3033336.846394006062	66.089096717621
0	178154	3033337.205667637382	0.35927363132
0	178159	3033364.10747180516	26.901804167778
0	178170	3033430.976492192768	8.41081299952
0	178179	3033458.886213777522	19.367639228923
0	178184	3033474.668888272712	15.78267449519
0	178191	3033504.603255104728	18.407598978796
0	178198	3033598.196912813728	25.277471405153
0	178205	3033617.130105721868	3.979217896658
0	178212	3033807.431192643705	11.744459016849
0	178223	3033880.092308538891	28.234798891952
0	178228	3033903.873172667961	23.78086412907
0	178233	3033918.678806474701	14.80563380674
0	178240	3034004.605129413794	22.874731127126
0	178247	3034054.880499849893	32.756431609522
0	178254	3034144.451711475109	30.164146123629
0	178261	3034274.356207012977	14.764606350949
0	178268	3034328.81283528504	37.210794937782
0	178275	3034387.638268432359	19.697648212641
0	178282	3034496.057273225345	48.254321520923
0	178289	3034772.293083273909	39.581230658193
0	178296	3034826.44411354187	18.19907644091
0	178303	3034904.944611991309	2.865210984687
0	178310	3034967.18435573936	6.953598960586
0	178319	3034992.686619548204	12.616897504233
0	178324	3035023.297596795254	30.61097724705
0	178333	3035131.018928556529	36.547432190282
0	178338	3035148.041658286526	17.022729729997
0	178349	3035483.907192821214	25.038230318538
0	178354	3035519.136853507239	35.229660686025
0	178359	3035530.583922285926	11.447068778687
0	178366	3035608.508718236749	33.285855675872
0	178375	3035760.039264873154	83.568655244986
0	178380	3035836.478693368223	76.439428495069
0	178387	3035956.843378335171	99.23406576232
0	178394	3036034.125093204354	76.559598346175
0	178402	3036312.548546004878	87.246507021332
0	178553	3040953.301768321258	46.784005623949
0	178556	3040955.890616628533	2.588848307275
0	178563	3040963.42176427807	7.531147649537
0	178568	3040967.226490431931	3.804726153861
0	178573	3040972.402874043351	5.17638361142
0	178585	3041124.347716794504	151.94484275115
0	178590	3041130.867483350561	6.519766556057
0	178597	3041159.402335825414	28.534852474853
0	178604	3041191.357652853108	31.955317027694
0	178609	3041219.818588424248	28.46093557114
0	178614	3041228.631006797843	8.812418373595
0	178621	3041253.138499091418	24.507492293575
0	178626	3041277.824077281392	24.685578189974
0	178631	3041297.641850270298	19.817772988906
0	178636	3041353.704840174192	56.062989903894
0	178641	3041360.835547373801	7.130707199609
0	178648	3041417.091121608724	56.255574234923
0	178653	3041551.157127543393	134.06600593467
0	178658	3041578.112385454004	26.955257910611
0	178661	3041579.210654086962	1.098268632958
0	178668	3041581.101536256273	1.890882169311
0	178675	3041653.191920286202	72.090384029929
0	178714	3042909.148916643233	4.327767353967
0	178719	3042936.706336554286	27.557419911053
0	178736	3043221.085709632834	284.37937307855
0	178739	3043223.136603454235	2.050893821401
0	178746	3043235.887057447562	12.750453993327
0	178751	3043319.487947634818	83.600890187256
0	178756	3043341.81121223643	22.323264601612
0	178761	3043386.056232048003	44.245019811573
0	178766	3043421.336827784983	35.28059573698
0	178773	3043477.229992910773	55.89316512579
0	178778	3043496.68023386091	19.450240950137
0	178783	3043501.371174335585	4.690940474675
0	178788	3043622.490908691293	121.11973435571
0	178795	3043645.671873839605	23.180965148312
0	178800	3043654.621569296371	8.949695456766
0	178805	3043658.14909722368	3.527527927309
0	178812	3043815.740319844038	2.115608927107
0	178819	3043895.093287485648	6.382801871161
0	178828	3044462.488460538637	46.530311638567
0	178837	3044594.455924412145	131.96746387351
0	178842	3044610.908080706436	16.452156294291
0	178847	3044714.564178825319	103.65609811888
0	178854	3044848.111570852629	97.140219957969
0	178861	3044899.462536096578	2.754230815821
0	178870	3045139.575082217726	84.897727515354
0	178875	3045219.178645489304	79.603563271578
0	178884	3045319.691922408561	55.321796047296
0	178891	3045472.984993830879	153.29307142232
0	178896	3045502.636968151883	29.651974321004
0	178903	3045522.253415341076	13.164295080888
0	178914	3045782.545437961655	190.73696140287
0	178925	3045910.904703046875	128.35926508522
0	178930	3045949.022427881855	38.11772483498
0	178935	3045955.312519212456	6.290091330601
0	178940	3046021.646628683561	66.334109471105
0	178947	3046059.089092285564	37.442463602003
0	178952	3046067.723586228793	8.634493943229
0	178959	3046194.716867067685	23.956427054313
0	178968	3046314.43009781331	63.803233460371
0	178973	3046316.011030474286	1.580932660976
0	178980	3046465.020839219341	15.230747119537
0	178987	3046647.624688488658	38.069653990255
0	178994	3046718.379145990447	9.271806617951
0	179001	3046766.250874564352	28.111157768024
0	179012	3046944.458082802416	44.67801463127
0	179019	3047075.813562636829	131.35547983441
0	179106	3050196.312205071279	200.92985942511
0	179111	3050199.866352155813	3.554147084534
0	179116	3050282.83672662321	82.970374467397
0	179121	3050291.592984666494	8.756258043284
0	179126	3050295.53693153722	3.943946870726
0	179131	3050319.184300895476	23.647369358256
0	179136	3050347.344167632518	28.159866737042
0	179145	3050379.600811518855	32.256643886337
0	179150	3050396.738644174688	17.137832655833
0	179165	3050660.165764182821	263.42712000813
0	179170	3050717.0153736595	56.849609476679
0	179175	3050722.898279007233	5.882905347733
0	179180	3050733.85300003822	10.954721030987
0	179185	3050758.650522152107	24.797522113887
0	179190	3050771.297321191955	12.646799039848
0	179195	3050784.812279657204	13.514958465249
0	179200	3050926.654466839181	141.84218718198
0	179207	3051023.251699683493	0.199553237631
0	179214	3051060.040659667517	14.69081311934
0	179221	3051169.906391554852	81.648212179237
0	179230	3051395.572969043393	72.308260725971
0	179235	3051436.986864429559	41.413895386166
0	179242	3051551.260502710632	45.890935583602
0	179249	3051851.03937820476	29.115536102079
0	179256	3051952.860267489685	41.904092233787
0	179263	3052034.96888138316	48.140419413566
0	179272	3052136.628603621712	49.298222160554
0	179277	3052188.71121633959	52.082612717878
0	179284	3052296.12411394739	42.307730607033
0	179293	3052375.705950146264	34.005331512306
0	179298	3052483.619008565347	107.91305841908
0	179337	3053610.17929934646	132.95439351835
0	179344	3053784.449650745152	55.260240773613
0	179355	3054237.017725249292	28.905412342982
0	179362	3054497.858104160907	0.857848777593
0	179373	3054804.126607721969	244.89976729139
0	179378	3054846.873938563094	42.747330841125
0	179385	3054931.944875142554	85.07093657946
0	179390	3055001.992396518595	70.047521376041
0	179397	3055177.383549254522	87.1085552215
0	179404	3055346.788694670997	1.967788067309
0	179411	3055426.644346848822	27.06869727116
0	179418	3055574.621714950903	32.306413321958
0	179425	3055623.548539268086	20.736109786854
0	179432	3055677.927009202318	54.026976873032
0	179439	3055818.284535801816	80.365035866126
0	179446	3055883.59488801579	26.330690658798
0	179453	3055996.957770202403	13.689100814619
0	179460	3056414.571411609893	60.641372618424
0	179469	3056440.196664808476	15.084523088607
0	179474	3056456.791003638754	16.594338830278
0	179481	3056551.77145116434	7.935214272881
0	179488	3056588.08620238378	14.929620634083
0	179499	3056885.260886427875	267.4066938052
0	179504	3056888.828855846921	3.567969419046
0	179509	3056893.601300411444	4.772444564523
0	179520	3057157.266471205555	100.15494004065
0	179529	3057241.927340816499	84.660869610944
0	179534	3057246.790596570154	4.863255753655
0	179541	3057394.30495684963	147.51436027948
0	179546	3057403.662919997855	9.357963148225
0	179551	3057417.166847427765	13.50392742991
0	179558	3057600.255373086251	11.573295030903
0	179565	3057624.370189207263	1.108805510385
0	179572	3057690.840254647227	15.991370839198
0	179579	3058062.494873709819	52.588722112728
0	179588	3058162.645013246474	52.264863400696
0	179595	3058201.004721175598	38.359707929124
0	179598	3058201.078821009291	0.074099833693
0	179607	3058239.748691595571	26.1947935122
0	179614	3058556.39474255245	18.728437265799
0	179621	3058687.073436444678	32.638287455781
0	179628	3058744.021074307914	24.235926966267
0	179635	3058953.503853831742	23.481026211561
0	179644	3059021.559765300324	60.606168512885
0	179649	3059063.013018634583	41.453253334259
0	179658	3059224.123429035727	27.84283653919
0	179663	3059251.351240447134	27.227811411407
0	179670	3059313.110621477901	26.875466781218
0	179677	3059427.494277996722	37.61074321289
0	179684	3059471.526683337536	27.14167417806
0	179693	3059923.68261914658	51.973481163021
0	179699	3059970.441137316063	46.758518169483
0	179740	3061494.996801493398	8.00021232662
0	179745	3061518.027230435863	23.030428942465
0	179750	3061529.323673427237	11.296442991374
0	179755	3061574.071342702951	44.747669275714
0	179760	3061583.85597160772	9.784628904769
0	179765	3061589.507804180974	5.651832573254
0	179770	3061681.331294647019	91.823490466045
0	179773	3061681.576864423469	0.24556977645
0	179780	3061733.636261761102	52.059397337633
0	179791	3061938.359508277173	189.26551966049
0	179798	3062089.063799496743	71.739947206289
0	179805	3062219.855061817571	7.793109542308
0	179812	3062493.544874341115	55.360207945241
0	179819	3062505.593460912054	3.829895196987
0	179826	3062538.697130568768	10.749627046045
0	179833	3062662.622452742044	64.170529116932
0	179840	3062739.818486749213	67.645041275503
0	179847	3062788.111473489438	31.678285181539
0	180095	3069086.302702703577	132.00695279513
0	180100	3069095.438278979312	9.135576275735
0	180105	3069204.512910408158	109.07463142885
0	180110	3069227.028497501418	22.51558709326
0	180117	3069332.722562116464	105.69406461505
0	180122	3069337.871058301722	5.148496185258
0	180125	3069338.534092516765	0.663034215043
0	180132	3069380.96633272885	42.432240212085
0	180141	3069492.11143836515	111.1451056363
0	180146	3069505.372907492241	13.261469127091
0	180151	3069540.449336445579	35.076428953338
0	180156	3069562.207374458716	21.758038013137
0	180161	3069585.304209355907	23.096834897191
0	180164	3069586.573464505858	1.269255149951
0	180171	3069590.622137288995	4.048672783137
0	180176	3069707.122009273708	116.49987198471
0	180181	3069723.081531980768	15.95952270706
0	180186	3069814.366136052207	91.284604071439
0	180191	3069814.908093709515	0.541957657308
0	180196	3069823.137321690831	8.229227981316
0	180201	3069829.482270206697	6.344948515866
0	180206	3069834.199580045298	4.717309838601
0	180211	3069874.996364771703	40.796784726405
0	180216	3069903.455595033107	28.459230261404
0	180225	3069965.662089246973	62.206494213866
0	180230	3070015.531281689773	49.8691924428
0	180235	3070027.49434591516	11.963064225387
0	180240	3070061.954781486259	34.460435571099
0	180245	3070087.843554938558	25.888773452299
0	180250	3070121.356020785295	33.512465846737
0	180255	3070167.648223816314	46.292203031019
0	180260	3070171.150013354679	3.501789538365
0	180267	3070196.045009881923	24.894996527244
0	180272	3070239.511771630928	43.466761749005
0	180277	3070294.49226544027	54.980493809342
0	180282	3070303.777271266442	9.285005826172
0	180291	3070429.851633663506	49.202981183802
0	180296	3070431.348835376103	1.497201712597
0	180303	3070557.647328358279	86.946624797013
0	180310	3070709.953834202425	39.417455486991
0	180323	3070904.580603891802	55.29826177358
0	180334	3070978.830863193901	74.250259302099
0	180339	3070982.300146164244	3.469282970343
0	180344	3070993.801195175452	11.501049011208
0	180351	3071043.390351038477	49.589155863025
0	180356	3071082.546347364099	39.155996325622
0	180361	3071116.135058385581	33.588711021482
0	180366	3071128.781185861278	12.646127475697
0	180373	3071226.241339341046	6.97031737452
0	180384	3071386.193941236696	52.898519538683
0	180389	3071388.690347322424	2.496406085728
0	180396	3071405.025770925383	16.335423602959
0	180403	3071492.078941731564	87.053170806181
0	180408	3071525.881108940483	33.802167208919
0	180417	3071666.630840534827	57.845375865768
0	180426	3071722.36039041259	55.729549877763
0	180431	3071746.418756317551	24.058365904961
0	180436	3071751.044915673066	4.626159355515
0	180443	3071840.635197661518	0.867317610316
0	180452	3071939.477547301682	89.91864884866
0	180457	3071955.990889114444	16.513341812762
0	180464	3072045.058201335836	40.995768656204
0	180471	3072255.30957659595	35.723383672768
0	180478	3072281.273351129948	2.794532757612
0	180487	3072467.326931656613	34.352231459024
0	180492	3072483.547323778393	16.22039212178
0	180501	3072520.626677487304	30.489197111309
0	180510	3072617.176723412664	96.55004592536
0	180515	3072625.942058024179	8.765334611515
0	180522	3072735.326187935225	109.38412991105
0	180527	3072744.955462619788	9.629274684563
0	180538	3073030.457393740595	123.05960077417
0	180543	3073031.870837868736	1.413444128141
0	180550	3073098.729195006591	66.858357137855
0	180555	3073124.504651352724	25.775456346133
0	180562	3073171.212478777303	7.680928666239
0	180569	3073186.498329595371	13.214173684292
0	180576	3073266.295957990479	73.484565925406
0	180583	3073364.308356453289	28.189592023161
0	180592	3073467.488567121149	73.696929737544
0	180597	3073499.802514963632	32.313947842483
0	180604	3073545.326531018524	41.191494027887
0	180613	3073619.261885018395	44.395826771687
0	180620	3073680.88009262806	61.618207609665
0	180625	3073686.397531164338	5.517438536278
0	180632	3073715.304044969225	21.463877849822
0	180639	3073960.094656699252	34.722540848656
0	180648	3073973.796664573186	7.649060734716
0	180653	3073976.088946810936	2.29228223775
0	180660	3074011.182139928762	1.655259776583
0	180667	3074208.214804290532	20.498710888253
0	180674	3074322.199566735908	67.60889879873
0	180681	3074484.3863382573	59.712154608448
0	180692	3074682.426705138533	124.05064562181
0	180697	3074768.682662992261	86.255957853728
0	180702	3074785.054641383464	16.371978391203
0	180709	3074850.948357614957	16.67811632462
0	180716	3074976.754523846854	67.736176468243
0	180723	3075060.244763439341	40.047276992884
0	180732	3075120.583732870207	30.576743733329
0	180737	3075159.626641455398	39.042908585191
0	180744	3075177.960429680006	1.98096777784
0	180751	3075339.101086757677	0.154329111807
0	180760	3075468.007080751748	74.525741162731
0	180765	3075519.459501091003	51.452420339255
0	180774	3075881.89597768484	121.04074555741
0	180779	3075899.752507889397	17.856530204557
0	180790	3075982.288070043051	54.044914855747
0	180799	3076053.301671037231	71.01360099418
0	180804	3076057.91958650014	4.617915462909
0	180809	3076182.348733641491	124.42914714135
0	180814	3076198.176778860331	15.82804521884
0	180821	3076440.804329827023	110.03043043098
0	180828	3076662.978211089571	12.190446449973
0	180835	3076773.656187794804	18.674913703046
0	180842	3076801.416726852434	7.144379830587
0	180849	3077212.035813185031	33.840723630713
0	180856	3077481.299325077004	52.676386555218
0	180863	3078001.559946872902	34.519145383787
0	180870	3078413.913403777784	3.19159563254
0	180877	3078572.254838814755	5.178290993325
0	180884	3078718.073002062393	11.98660768275
0	180891	3078795.920653159213	75.002842396811
0	180902	3078842.567867458548	35.218310610871
0	180907	3078911.289881349656	68.722013891108
0	180912	3078991.245224057972	79.955342708316
0	180919	3079020.901121560308	2.564565727122
0	180926	3079441.250536901521	21.632746042739
0	180933	3079495.332638968408	13.655780862808
0	180940	3079520.58555301323	9.633210780954
0	180947	3079753.273906775491	28.121583298639
0	180954	3079843.253954297607	28.204722952362
0	180961	3079875.270136007067	27.823894820791
0	180969	3079949.773825721633	55.577786431999
0	180989	3080547.821887522067	27.06843827747
0	180996	3080587.91632368544	40.094436163373
0	181001	3080641.916832218187	54.000508532747
0	181008	3080819.044151306666	75.558769610193
0	181015	3080976.767276201849	3.326887920501
0	181022	3081039.717142285597	58.314946931742
0	181037	3081300.016721741943	69.271531585432
0	181076	3082206.613519250304	37.624604120331
0	181081	3082215.572378611014	8.95885936071
0	181086	3082275.69672627854	60.124347667526
0	181091	3082293.044155191428	17.347428912888
0	181098	3082329.052437675926	36.008282484498
0	181103	3082338.272801545148	9.220363869222
0	181108	3082366.100698903293	27.827897358145
0	181119	3082529.477938488913	158.9437206488
0	181128	3082633.92456547579	70.416158068059
0	181133	3082636.820682223912	2.896116748122
0	181140	3082670.664761572523	0.125953353016
0	181153	3083175.06929094152	166.23481933537
0	181158	3083177.760400436213	2.691109494693
0	181163	3083188.539742989409	10.779342553196
0	181168	3083207.361458711264	18.821715721855
0	181177	3083374.862575733309	48.556460930112
0	181182	3083423.415211011452	48.552635278143
0	181191	3083515.193008281174	24.628698167584
0	181196	3083522.999378111832	7.806369830658
0	181203	3083598.942421153838	32.413998722648
0	181210	3083719.033440773955	15.054736262808
0	181221	3083926.697372002947	65.595130644956
0	181226	3083940.453804788523	13.756432785576
0	181231	3083967.712182140027	27.258377351504
0	181238	3084149.611077854	29.260997503584
0	181245	3084233.602301717536	35.511841779218
0	181252	3084274.247438650799	1.980291174844
0	181259	3084520.870676541954	72.455070148219
0	181266	3084841.277154674845	94.096310667075
0	181273	3084971.150555809213	128.89493894234
0	181280	3085033.84293798434	11.593022661941
0	181287	3085256.160913925983	3.449564301862
0	181296	3085751.055663896371	172.93148718961
0	181301	3085777.815752780112	26.760088883741
0	181308	3085842.006150720884	19.77683985949
0	181315	3085927.574152286654	3.617404408032
0	181322	3085983.297553152767	11.790414774697
0	181329	3086040.545265547658	19.774969375823
0	181336	3086126.641589451246	9.866403769841
0	181343	3086277.924614397285	45.315546922185
0	181352	3086694.512572429399	108.02629713002
0	181357	3086751.887010857629	57.37443842823
0	181366	3087034.855771529121	36.69831461453