version 2
run Simulations-3-20191215-22:53:53-18910
attr configname Simulations
attr datetime 20191215-22:53:53
attr experiment Simulations
attr inifile omnetpp.ini
attr iterationvars "$seed=7, $0=1700"
attr iterationvarsf seed=7,1700-
attr measurement "$seed=7, $0=1700"
attr network WifiCelNetPassiveQueue
attr processid 18910
attr repetition 0
attr replication #0
attr resultdir results/Simulations/omnet
attr runnumber 3
attr seedset 7
itervar seed 7
param **.numJobs 14000
param *.OFFLOAD.deadline exponential(1700s)
param *.source.interArrivalTime exponential(120s)
param *.WIFI.serviceTime exponential(40s)
param *.CELL.serviceTime exponential(400s)
param *.OFFLOAD.switchToWi exponential(1524s)
param *.OFFLOAD.switchToCel exponential(3120s)
param *.LOCAL.serviceTime exponential(5s)
param *.REMOTE.serviceTime exponential(1s)

vector 0 WifiCelNetPassiveQueue.CELL serviceTime:vector ETV
attr interpolationmode none
attr title "wifi Service, vector"
attr unit s
vector 1 WifiCelNetPassiveQueue.CELL responseTime:vector ETV
attr interpolationmode none
attr title "Response Time, vector"
attr unit s
vector 2 WifiCelNetPassiveQueue.OFFLOAD queueLength:vector ETV
attr interpolationmode sample-hold
attr title "queue length, vector"
vector 3 WifiCelNetPassiveQueue.REMOTE serviceTime:vector ETV
attr interpolationmode none
attr title "wifi Service, vector"
attr unit s
vector 4 WifiCelNetPassiveQueue.REMOTE responseTime:vector ETV
attr interpolationmode none
attr title "Response Time, vector"
attr unit s
vector 5 WifiCelNetPassiveQueue.sink lifeTime:vector ETV
attr interpolationmode none
attr title "lifetime of arrived jobs, vector"
attr unit s
vector 6 WifiCelNetPassiveQueue.OFFLOAD storeDeadline:vector ETV
attr interpolationmode none
attr title "deadline, vector"
attr unit s
vector 7 WifiCelNetPassiveQueue.LOCAL serviceTime:vector ETV
attr interpolationmode none
attr title "wifi Service, vector"
attr unit s
vector 8 WifiCelNetPassiveQueue.LOCAL responseTime:vector ETV
attr interpolationmode none
attr title "Response Time, vector"
attr unit s
vector 9 WifiCelNetPassiveQueue.OFFLOAD storeWifiTime:vector ETV
attr interpolationmode none
attr title "Time in Wifi, vector"
attr unit s
vector 10 WifiCelNetPassiveQueue.WIFI serviceTime:vector ETV
attr interpolationmode none
attr title "wifi Service, vector"
attr unit s
vector 11 WifiCelNetPassiveQueue.WIFI responseTime:vector ETV
attr interpolationmode none
attr title "Response Time, vector"
attr unit s
vector 12 WifiCelNetPassiveQueue.OFFLOAD storeCelTime:vector ETV
attr interpolationmode none
attr title "Time in Cell, vector"
attr unit s
vector 13 WifiCelNetPassiveQueue.REMOTE queueLength:vector ETV
attr interpolationmode sample-hold
attr title "queue length, vector"
vector 14 WifiCelNetPassiveQueue.LOCAL queueLength:vector ETV
attr interpolationmode sample-hold
attr title "queue length, vector"
0	86684	1500005.245218586628	143.88364406292
0	86695	1500466.144119512365	460.89890092574
0	86728	1501251.57578095282	785.43166144045
0	86740	1501741.183701142604	489.60792018978
0	86953	1504486.496206909319	21.135014483251
0	86964	1504750.979620368587	264.48341345927
0	86969	1504781.073469283715	30.093848915128
0	86986	1505502.667511625424	574.69136122176
0	86993	1505721.389146053845	218.72163442842
0	86998	1505736.665085510495	15.27593945665
0	87003	1505878.205605459798	141.5405199493
0	87028	1506351.28605781258	473.08045235278
0	87035	1506463.616484397507	112.33042658493
0	87040	1506522.25891033372	58.642425936213
0	87079	1507100.870847537023	578.6119372033
0	87086	1507247.402380627322	146.5315330903
0	87132	1508280.369956734519	1032.9675761072
0	87139	1508598.515754021227	318.14579728671
0	87149	1508642.401304498784	43.885550477557
0	87412	1510442.756723285366	100.97902415155
0	87417	1510467.214395966618	24.457672681252
0	87426	1510786.34119164678	209.68317638044
0	87433	1510937.97170550668	151.6305138599
0	87438	1510944.861807686215	6.890102179535
0	87445	1511251.447615604816	39.259850340664
0	87456	1511958.467213979965	230.44985149605
0	87469	1512414.824381085395	456.35716710543
0	87476	1512547.05368402991	132.22930294451
0	87481	1512566.685631899674	19.631947869764
0	87486	1512619.877759237329	53.192127337655
0	87498	1513159.709396346976	539.83163710965
0	87639	1515284.448441093852	415.57866389161
0	87654	1515639.261244968443	354.81280387459
0	87663	1515940.341230546542	301.0799855781
0	87672	1515999.432027279803	59.090796733261
0	87682	1516202.726709283315	203.29468200351
0	87787	1517349.944850885631	84.619498869722
0	87802	1517792.080643188974	418.15428161978
0	87807	1517847.596279706525	55.515636517551
0	87814	1517871.035196497449	23.438916790924
0	87821	1517997.550095147683	126.51489865023
0	87856	1518718.693502026937	721.14340687925
0	87861	1518743.007242494896	24.313740467959
0	87878	1519328.848305111449	585.84106261655
0	87893	1519719.085981323238	390.23767621179
0	87898	1520146.549673481604	427.46369215837
0	87917	1520670.498293541405	523.9486200598
0	87948	1521723.383161875816	1052.8848683344
0	88208	1525088.990393472101	417.49862897126
0	88213	1525119.339683057389	30.349289585288
0	88222	1525242.399566583573	123.05988352618
0	88231	1525334.160485149462	91.760918565889
0	88247	1525532.422611715928	198.26212656647
0	88373	1527917.555439304946	330.96175515983
0	88402	1528639.494381632854	721.93894232791
0	88411	1529131.432115327224	491.93773369437
0	88719	1535823.338309325785	349.44696683498
0	88724	1535852.549970583247	29.211661257462
0	88741	1536406.629613536591	554.07964295334
0	88752	1536989.165615350172	582.53600181358
0	88759	1537052.469837525259	63.304222175087
0	88820	1538638.280073006556	1585.8102354813
0	88858	1540024.00939691581	1385.7293239093
0	89150	1542938.984184789321	117.11648584308
0	89159	1543298.187912755563	125.53983921742
0	89171	1543660.489408515673	362.30149576011
0	89647	1551281.256202331349	27.929976429363
0	89666	1551633.045272281999	351.78906995065
0	89708	1552712.945417363411	1079.9001450814
0	89735	1553502.924280155573	789.97886279216
0	89772	1554840.189879880199	1337.2655997246
0	90234	1560134.910443878294	321.08211101028
0	90358	1562646.353532132986	797.33005412579
0	90728	1568472.669343989331	331.42516105919
0	90739	1568716.973338898333	244.303994909
0	90746	1568723.746812594138	6.773473695805
0	90759	1569079.959423106946	356.21261051281
0	90781	1569359.716065453972	279.75664234703
0	91223	1577747.17035323798	2379.5568504618
0	91244	1578168.161793128513	420.99143989053
0	91269	1578679.533373735707	511.37158060719
0	91293	1579660.265279245138	980.73190550943
0	91725	1587390.132071544875	782.49231236321
0	91734	1587644.109995419798	253.97792387492
0	91743	1587826.0700026565	181.9600072367
0	91768	1588759.639256362274	933.56925370577
0	92009	1592723.863435116942	465.56616943365
0	92058	1593340.93116255559	232.10254383749
0	92063	1593347.405141074634	6.473978519044
0	92074	1593506.285057709869	158.87991663523
0	92109	1594329.680457889155	823.39540017929
0	92118	1594396.858590548004	67.178132658849
0	92133	1594556.511817931815	159.65322738381
0	92140	1594610.536673349773	54.024855417958
0	92175	1596126.775559933901	1516.2388865841
0	92190	1596550.892996007269	424.11743607337
0	92195	1596589.398265431744	38.505269424475
0	92205	1596821.044316114393	231.64605068265
0	92511	1600630.950892107984	49.333161553045
0	92526	1601030.326047983794	341.20310903993
0	92808	1605983.184236828346	724.71871038032
0	92817	1606061.525637993766	78.34140116542
0	92935	1608087.17758032109	542.34179413251
0	92965	1608660.267576397784	573.08999607669
0	92971	1608801.547122773759	141.27954637598
0	93192	1611970.889116100137	163.93981097187
0	93199	1612077.142057333521	106.25294123338
0	93204	1612131.003133231972	53.861075898451
0	93943	1625042.467308426468	104.93956263489
0	93950	1625072.000365625729	26.416713452599
0	93959	1625459.53047529598	292.54893846515
0	93982	1625893.981156555642	434.45068125966
0	93989	1625954.726274578479	60.745118022837
0	94022	1626383.06829143351	428.34201685503
0	94045	1626749.78778760361	366.7194961701
0	94180	1628434.187704455961	258.25904317719
0	94189	1628687.902893207318	253.71518875136
0	94196	1628791.65924967492	103.7563564676
0	94207	1629324.554892170875	532.89564249596
0	94402	1632235.500888103687	334.65493920102
0	94435	1632933.761438798125	698.26055069444
0	94452	1633434.68801238055	500.92657358242
0	94487	1634176.343498238111	741.65548585756
0	94502	1634727.563673617274	551.22017537916
0	94857	1639907.643111095221	122.01798608864
0	94862	1639986.931206311316	79.288095216095
0	94895	1640881.868068493824	825.59442609836
0	94903	1641013.901556554801	132.03348806098
0	95104	1644266.02285466053	98.841453595212
0	95110	1644612.166160247497	346.14330558697
0	95346	1648227.032500233136	472.83227289727
0	96200	1660362.408294595135	122.01267431818
0	96223	1661314.574787528378	952.16649293324
0	96238	1661473.499300283292	158.92451275491
0	96251	1661718.042464619341	244.54316433605
0	96302	1663324.785461547929	1606.7429969286
0	97082	1675953.242641461804	171.95141974304
0	97087	1675995.618123825287	42.375482363483
0	97110	1676634.264428741611	582.60766788185
0	97137	1677357.682294370614	723.417865629
0	97184	1678910.480490545626	1552.798196175
0	97538	1683645.05158659496	64.412369704419
0	97585	1684524.23690025128	879.18531365632
0	97611	1685036.710438024595	512.47353777332
0	97954	1690626.640524875545	1193.1290773026
0	98274	1695063.080638912533	317.1845790274
0	98285	1695546.531185674675	483.45054676214
0	98300	1695736.586444857483	190.05525918281
0	98307	1695905.748201720071	169.16175686259
0	98312	1695907.904707188094	2.156505468023
0	98323	1696090.485625431186	182.58091824309
0	98341	1696827.085418519151	736.59979308796
0	98500	1698825.34214520336	53.81015173829
0	98507	1699033.89130225881	208.54915705545
0	98512	1699203.099319640838	169.20801738203
0	98544	1700283.695940159414	849.44866049718
0	98884	1706089.550090706739	153.73339704222
0	98889	1706097.359604566307	7.809513859568
0	98904	1706696.279414633996	504.86092909979
0	98913	1706964.333612958995	268.054198325
0	98954	1708047.306704785044	1082.973091826
0	98973	1708316.090570942197	268.78386615715
0	98978	1708388.201058659292	72.110487717095
0	98997	1708993.010215654107	604.80915699481
0	99059	1709579.956849185845	64.42475951221
0	99097	1711026.466214432921	1247.2664043972
0	99767	1722302.012350167323	673.44465215426
0	99948	1724736.305311844249	231.59675309268
0	99955	1724776.020348604873	39.715036760624
0	99968	1725215.155985644097	439.13563703922
0	99973	1725229.569801428075	14.413815783978
0	99984	1725328.771532354262	99.201730926187
0	100008	1726209.262743225878	880.49121087162
0	100303	1730050.436034155466	137.71011721181
0	100315	1730236.778005692191	186.34197153672
0	100586	1735253.299539090646	579.4618953691
0	100593	1735296.438683272567	43.139144181921
0	100610	1735755.111918450221	458.67323517765
0	101075	1743063.671022956714	1033.8391289139
0	101108	1743502.90097179048	25.538905312861
0	101115	1743761.866836709823	47.292959665783
0	101127	1744319.602995948688	472.90984890957
0	101684	1753373.18980200441	290.72562538597
0	101691	1753418.857921349918	32.755206512499
0	101713	1754363.304353693424	794.25387243162
0	101807	1755560.721645886154	89.856581146032
0	102095	1762334.102041806584	384.63679737617
0	102110	1762707.909745049672	373.80770324309
0	102145	1763646.592745886686	938.68300083701
0	102150	1763782.392939814716	135.80019392803
0	102189	1764708.31537709559	925.92243728087
0	102196	1764824.487868389451	116.17249129386
0	102209	1764952.016783476554	127.5289150871
0	102214	1764952.892669667111	0.875886190557
0	102221	1764984.582342824294	31.689673157183
0	102228	1765097.959825909079	113.37748308478
0	102287	1766446.414765688656	1348.4549397796
0	102294	1766539.559535931943	93.144770243287
0	102317	1766942.777438578788	403.21790264685
0	102566	1771552.968959578428	1753.2065217174
0	102587	1772125.840126459759	572.87116688133
0	102694	1773174.378076179149	279.49023942752
0	102701	1773443.491177874479	269.11310169533
0	102706	1773446.623769593114	3.132591718635
0	102715	1773642.595446853046	195.97167725993
0	102731	1774151.697647169424	509.10220031638
0	102788	1774678.204282445227	237.42611681728
0	102801	1775024.42594548818	346.22166304295
0	102818	1775301.106705547817	276.68076005964
0	102839	1775613.815243952329	312.70853840451
0	102844	1775620.562087136439	6.74684318411
0	102876	1776877.045763291478	1256.483676155
0	103241	1781241.211275701164	151.7107626882
0	103250	1781789.533127777267	548.3218520761
0	103303	1783790.822395822051	2001.2892680448
0	103330	1784881.017400206494	1090.1950043844
0	103566	1787684.799227105955	147.20709311092
0	103571	1787788.292049926574	103.49282282062
0	103580	1787899.978239463099	110.30895947023
0	103599	1788504.927867928369	604.94962846527
0	103730	1790873.365875478513	894.85727695291
0	103768	1791959.929314374755	1086.5634388962
0	103896	1793906.140634564172	286.11404735582
0	103925	1794533.724987779063	627.58435321489
0	103934	1794664.066167094125	130.34117931506
0	103961	1795194.065801460337	529.99963436621
0	104000	1795668.703161195462	474.63735973513
0	104035	1796893.157894269691	1224.4547330742
0	104072	1797766.621010032156	873.46311576247
0	104085	1797924.16410513404	157.54309510188
0	104092	1798101.087232723676	176.92312758964
0	104097	1798178.706874400256	77.61964167658
0	104124	1798796.199367415552	617.4924930153
0	104140	1799090.594925658047	294.39555824249
0	104373	1801458.857276787924	45.915474650424
0	104386	1801746.870702943402	227.54935127423
0	104391	1801830.914194424233	84.043491480831
0	104423	1802760.920007446932	930.0058130227
0	104782	1808393.25207923775	645.5606252983
0	104870	1809379.805542646295	539.57936412516
0	104893	1810146.064181848894	766.2586392026
0	104898	1810206.181743575915	60.117561727021
0	104906	1810269.72770161329	63.545958037375
0	105262	1815719.457691697703	740.20310475978
0	105317	1816387.654915791168	42.923086832818
0	105395	1817719.515319173877	1077.1438364141
0	105410	1818097.334971638078	2.732749174317
0	105485	1820772.237424036594	1086.8433783504
0	105492	1820964.910261979217	192.67283794262
0	105504	1821476.286347148397	511.37608516918
0	105621	1823795.040828479829	39.337977480244
0	105630	1824288.180461549454	444.89100714129
0	105635	1824355.071983317616	66.891521768162
0	105680	1825441.686830464085	1050.0796378073
0	105689	1825742.999806406477	301.31297594239
0	105703	1826065.951431491498	322.95162508502
0	106076	1831793.419376997163	650.17431513317
0	106446	1837872.944888213899	640.70563891502
0	106460	1838620.206385403652	747.26149718975
0	106599	1840681.965046409299	947.65640395598
0	106611	1841171.559324130171	489.59427772087
0	106747	1843147.758605789902	309.73552841884
0	106762	1843666.941737258921	444.63147176002
0	106769	1843777.903120003634	110.96138274471
0	106774	1843963.17657867969	185.27345867606
0	106787	1844437.666575219152	474.48999653946
0	106809	1845090.113692173816	652.44711695466
0	107080	1849321.916184485952	140.27602116769
0	107089	1849695.490829119869	282.83451753735
0	107104	1850066.403617501758	370.91278838189
0	107121	1850596.450270788414	530.04665328666
0	107206	1851645.515469081113	643.22246999557
0	107227	1851946.708485587303	301.19301650619
0	107253	1852654.784397247088	708.07591165978
0	107564	1857900.266232470908	205.0249244964
0	107572	1858188.174391329108	287.9081588582
0	107770	1862685.962476113519	40.949712203816
0	107783	1862772.864357589292	67.174564477886
0	107805	1863462.452839191633	689.58848160234
0	107871	1864435.724328194044	277.55776705191
0	107947	1865586.096441870219	1150.3721136762
0	108400	1872056.34526090402	445.43101207506
0	108452	1872978.852105322943	627.49293987974
0	108463	1873393.779892913771	414.92778759083
0	108483	1874025.301453394697	631.52156048093
0	108638	1876191.155333106135	947.1094163006
0	108645	1876288.093559650209	96.938226544074
0	108660	1876539.414392716932	251.32083306672
0	108677	1876903.779899352957	364.36550663602
0	108700	1877352.759360296442	448.97946094348
0	108715	1877579.6548158195	226.89545552306
0	108774	1878427.13616432365	847.48134850415
0	108781	1878475.224740021152	48.088575697502
0	108824	1879265.175410168431	789.95067014728
0	108859	1879904.347686210817	639.17227604239
0	108895	1880907.49882495334	1003.1511387425
0	109022	1883140.384849440053	647.15515248807
0	109028	1883290.251608487245	149.86675904719
0	109118	1884707.477524797232	134.94624787644
0	109129	1884992.385549349747	284.90802455251
0	109142	1885371.446505059398	379.06095570965
0	109194	1887856.087148684524	2484.6406436251
0	109516	1891851.952133737187	388.54214437731
0	109525	1892059.540126847315	207.58799311013
0	109536	1892131.233470382806	71.693343535491
0	109553	1892733.545702822345	602.31223243954
0	109568	1893110.853220233846	377.3075174115
0	109585	1893589.37343589235	478.5202156585
0	109618	1894356.511166659972	767.13773076762
0	109637	1894592.205881579087	235.69471491912
0	109664	1894841.833446475036	249.62756489595
0	109694	1895872.681743226293	1030.8482967513
0	109907	1899516.477825171317	1195.6710816735
0	110092	1902166.24114329428	91.8974256374
0	110110	1903199.406920054075	1033.1657767598
0	110150	1903702.454733030002	378.49529145946
0	110159	1903996.614418876517	294.15968584652
0	110184	1904642.636322748978	646.02190387246
0	110191	1904770.417870138527	127.78154738955
0	110200	1904799.797407993126	29.379537854599
0	110235	1905760.671241317264	960.87383332414
0	110258	1906009.913120384573	249.24187906731
0	110265	1906052.424897000523	42.51177661595
0	110274	1906144.384512214897	91.959615214374
0	110283	1906222.185192699953	77.800680485056
0	110290	1906329.931693912072	107.74650121212
0	110327	1907118.703355728937	788.77166181686
0	110359	1908425.480705732027	1306.7773500031
0	110489	1910332.664727579392	428.31446091325
0	110502	1910947.852673129413	615.18794555002
0	110528	1911816.142537870869	868.28986474146
0	110544	1912219.610140129712	403.46760225884
0	110863	1916284.492141179079	327.63463643614
0	111507	1927876.444897669475	133.57812212414
0	111516	1928333.616848862573	457.1719511931
0	111588	1930650.424197988241	2316.8073491257
0	111761	1932852.673615744423	321.79024201062
0	111776	1933591.377805809553	256.41172785478
0	111788	1933948.378772203	357.00096639345
0	111875	1935192.24761019519	560.94251128533
0	111888	1935260.060615307379	67.813005112189
0	111923	1935964.657025202556	704.59640989518
0	111948	1936538.655321523159	573.9982963206
0	111993	1937230.70267093562	692.04734941246
0	112013	1937320.53798190179	56.112448095481
0	112018	1937427.260031440596	106.72204953881
0	112040	1937905.932600733152	478.67256929256
0	112346	1941656.779675089574	629.86041510514
0	112659	1947340.046358396052	62.932288487574
0	112993	1953156.83842966039	54.619554303381
0	113010	1953679.25042760112	455.59470212553
0	113018	1953771.739366001618	92.488938400498
0	113339	1958231.778336439776	114.34565939951
0	113358	1958760.627616114895	528.84927967512
0	113367	1958833.050991984398	72.423375869503
0	113412	1960178.246795290063	1345.1958033057
0	113443	1960563.33224688383	385.08545159377
0	113450	1960668.804449305294	105.47220242146
0	113471	1961225.463105152541	556.65865584725
0	113604	1962672.245501337807	199.10053168695
0	113639	1963457.313594125049	785.06809278724
0	113644	1963549.893123877062	92.579529752013
0	113651	1963625.500379030668	75.607255153606
0	113662	1963966.265385140175	340.76500610951
0	113667	1963970.22366300077	3.958277860595
0	113672	1964043.165581016093	72.941918015323
0	113681	1964125.053840721527	81.888259705434
0	113688	1964431.593994984516	306.54015426299
0	113693	1964450.699695636297	19.105700651781
0	113700	1964749.196887473856	298.49719183756
0	113707	1964794.490804670152	45.293917196296
0	113726	1965689.114331535955	894.6235268658
0	113854	1967141.342578660515	508.42310006915
0	114303	1975565.917876492015	299.34193079735
0	114310	1976258.014120604602	190.76831757231
0	114324	1976477.062534390481	183.21694422197
0	114679	1981304.252220075853	324.76859415779
0	114688	1981561.235157809968	256.98293773412
0	114701	1981921.819119586228	360.58396177626
0	114978	1987340.472254869345	1786.5093800375
0	115001	1987466.648793275622	10.231134842465
0	115014	1987788.75130028025	322.10250700463
0	115023	1988016.366415896192	227.61511561594
0	115104	1989877.729510915963	1861.3630950198
0	115155	1990632.307546326782	534.62496725765
0	115170	1990832.763708988	200.45616266122
0	115187	1991164.224569222252	331.46086023425
0	115329	1992162.547759038345	23.023140914003
0	115353	1992928.07108874283	765.52332970449
0	115566	1995462.184986820847	625.49748481456
0	115662	1997320.887568860473	1591.322323907
0	115704	1998051.70239718866	730.81482832819
0	116176	2003749.382820136173	510.57243239257
0	116183	2004048.125995311215	298.74317517504
0	116188	2004054.336307750527	6.210312439312
0	116195	2004203.027338191601	148.69103044107
0	116210	2004520.832430586102	317.8050923945
0	116423	2008637.022711433308	31.430027876181
0	116898	2016134.711173642061	278.36688070513
0	116921	2016909.637837752007	774.92666410995
0	116928	2017055.067498765941	145.42966101393
0	116935	2017077.717808480438	22.650309714497
0	116941	2017167.988918902257	90.271110421819
0	117239	2022356.381930221351	37.304601998024
0	117276	2023450.632053892288	1094.2501236709
0	117315	2024354.031468116811	903.39941422452
0	117324	2024504.629516888816	150.59804877201
0	117331	2024530.103188064151	25.473671175335
0	117340	2024967.088589555509	436.98540149136
0	117377	2025681.562286115652	714.47369656014
0	117408	2026198.021571261754	516.4592851461
0	117445	2026862.51533168779	664.49376042604
0	117456	2026921.875566725522	59.360235037732
0	117461	2026928.309554844189	6.433988118667
0	117478	2027330.180247444671	401.87069260048
0	117815	2032178.289597643697	384.46906386962
0	117823	2032377.847709902973	199.55811225928
0	118228	2039422.247348634483	143.78116943444
0	118247	2039571.221051976489	148.97370334201
0	118252	2039584.078132704242	12.857080727753
0	118261	2039722.213908022008	138.13577531777
0	118280	2040422.130015021078	699.91610699907
0	118299	2040764.093655605474	341.9636405844
0	118306	2040778.838334220252	14.744678614778
0	118316	2041034.901489310643	256.06315509039
0	118374	2041937.771543953638	186.59867712872
0	118389	2042272.004745033709	334.23320108007
0	118400	2042511.440654612689	239.43590957898
0	118409	2042899.876126884843	388.43547227215
0	118423	2043151.799812529052	251.92368564421
0	118979	2052725.449772868473	230.08533797335
0	119247	2057950.114092397927	1012.5487783459
0	119426	2061983.787987128104	1251.4691234249
0	119475	2062518.735613076075	369.83431613508
0	119607	2064022.333031349632	545.83197260529
0	119612	2064307.425489042547	285.09245769291
0	119629	2064554.98910826252	247.56361921997
0	119636	2064647.411119250749	92.422010988229
0	119648	2065014.049499638903	366.63838038815
0	119929	2069851.696812954161	22.54324735305
0	119936	2070026.85839869668	95.235667018966
0	119975	2070664.411978577208	588.36415192565
0	119984	2070705.771691210515	41.359712633307
0	120003	2070995.326068303815	289.5543770933
0	120024	2071530.605984365084	535.27991606127
0	120298	2074807.19621364573	602.20243540388
0	120817	2083057.771993041184	793.2180625908
0	121018	2086649.811709875366	640.11331413795
0	121065	2088638.434217052644	1988.6225071773
0	121072	2088816.412346211764	177.97812915912
0	121091	2089158.813787686947	342.40144147518
0	121112	2089532.607007100578	373.79321941363
0	121127	2089773.521987139745	240.91498003917
0	121150	2090148.649859849574	375.12787270983
0	121185	2090564.689032560589	416.03917271101
0	121198	2090657.38840646285	92.699373902261
0	121220	2090789.268291921807	131.87988545896
0	121387	2092321.345276438719	91.159570181941
0	121434	2093590.414238823048	1269.0689623843
0	121441	2093669.487156719683	79.072917896635
0	121456	2094066.943352233943	397.45619551426
0	121497	2095525.613716816932	1458.670364583
0	121584	2097037.716575247062	512.70198010509
0	121599	2097361.504419599622	323.78784435256
0	121620	2098100.380152517793	738.87573291817
0	121629	2098289.273226358211	188.89307384042
0	121638	2098454.317579073555	165.04435271534
0	121645	2098471.514146759997	17.196567686442
0	121695	2100198.246493675136	1726.7323469151
0	121943	2102456.457129202698	43.740106555722
0	121954	2102895.040913179495	438.5837839768
0	121971	2103330.20571317013	435.16479999064
0	122008	2104582.00672920915	1251.801016039
0	122035	2104905.064528066588	323.05779885744
0	122080	2105755.67839149009	850.6138634235
0	122094	2106037.758979778903	282.08058828881
0	122241	2107586.352966250878	528.01497043659
0	122263	2107966.693509838716	306.39182240741
0	122278	2108550.516607230338	583.82309739162
0	122291	2108826.709950500476	276.19334327014
0	122296	2108886.986532419064	60.276581918588
0	122305	2109299.433722355671	412.44718993661
0	122398	2111349.302071832759	1925.0142347568
0	122403	2111370.421542877791	21.119471045032
0	122440	2112341.797070753024	971.37552787523
0	122461	2112504.117531408904	162.32046065588
0	122480	2112879.653727915354	375.53619650645
0	122499	2113312.883958386241	433.23023047089
0	122848	2118355.55787942578	1226.6008102199
0	122853	2118365.660973938836	10.103094513056
0	122886	2118707.025768788428	341.36479484959
0	123028	2120685.480068637613	148.81658855136
0	123045	2121057.09446086915	371.61439223154
0	123056	2121480.56854128166	423.47408041251
0	123085	2122467.126351729854	986.55781044819
0	123122	2123026.654036985988	559.52768525613
0	123127	2123107.854398476201	81.200361490213
0	123132	2123193.309696494883	85.455298018682
0	123137	2123225.735366563338	32.425670068455
0	123161	2123566.421159706437	340.6857931431
0	123433	2128021.842484742823	110.72396218059
0	123617	2130016.460838197083	196.13121995532
0	123773	2131688.582763478064	28.018594992843
0	123782	2132058.476243945744	119.75350559137
0	123797	2132597.480371037165	539.00412709142
0	123802	2132650.450087815929	52.969716778764
0	123811	2133166.787393356557	516.33730554063
0	123833	2134199.968114012374	1033.1807206558
0	123946	2136093.6599383749	845.5788107736
0	123993	2137602.551903536355	1508.8919651615
0	124006	2138003.515587033383	400.96368349703
0	124019	2138219.115367872696	215.59978083931
0	124028	2138254.051170696609	34.935802823913
0	124049	2138555.064909744162	301.01373904755
0	124076	2139171.133117279529	616.06820753537
0	124093	2139382.265667866001	211.13255058647
0	124108	2139615.242094878941	232.97642701294
0	124137	2139965.471831180381	350.22973630144
0	124570	2145664.233937322488	628.23350641362
0	124582	2145986.59832645071	322.36438912822
0	124699	2148227.21199917494	373.44050656808
0	124710	2148320.110149580513	92.898150405573
0	124715	2148333.792951435469	13.682801854956
0	124732	2149106.663940632398	772.87098919693
0	124835	2150158.477521654668	157.79862380059
0	125017	2154059.180545424909	286.22065471223
0	125022	2154080.558362770485	21.377817345576
0	125027	2154099.031627499636	18.473264729151
0	125038	2154312.689863306812	213.65823580718
0	125059	2154646.473616694851	333.78375338804
0	125069	2154879.318638081517	232.84502138667
0	125297	2157113.513191264475	27.675441429338
0	125314	2157539.361024153486	425.84783288901
0	125353	2158153.904110638605	614.54308648512
0	125374	2158643.199438237179	489.29532759857
0	125414	2159290.04720735066	646.84776911348
0	125465	2160351.758957323496	954.80396204514
0	125777	2163967.714390986552	1205.6379814011
0	125896	2165362.58671098069	48.601091788805
0	125907	2165774.200542052083	411.61383107139
0	125940	2167298.598017102033	1524.3974750499
0	126277	2172518.876572040404	436.28625089248
0	126284	2172971.165537969254	452.28896592885
0	126300	2173357.084715554943	385.91917758569
0	126517	2177453.172366105575	399.9153375902
0	126532	2177648.743257768199	195.57089166262
0	126561	2178332.211626713019	683.46836894482
0	126570	2178480.67734201981	148.46571530679
0	126579	2179111.796857882242	631.11951586243
0	126586	2179288.003104756908	176.20624687467
0	126595	2179321.500115544611	33.497010787703
0	126604	2179374.582244836881	53.08212929227
0	126613	2179801.594257247082	427.0120124102
0	126618	2179968.787725362198	167.19346811512
0	126623	2180133.668706858882	164.88098149668
0	126630	2180641.672468989058	11.910386552562
0	126643	2180862.718152924845	173.85011580842
0	126693	2181668.099548384525	799.40659694
0	126810	2183906.176979352795	114.06909150671
0	126827	2184470.202561893858	564.02558254106
0	126844	2184810.782568298367	340.58000640451
0	126887	2185912.268749819849	1101.4861815215
0	126913	2186438.57479383805	526.3060440182
0	127057	2188717.216511543001	172.17873275772
0	127075	2189089.532333648611	372.31582210561
0	127112	2189970.690135300824	260.91733919219
0	127141	2190988.141346542762	823.39996755922
0	127168	2191488.249673239493	500.10832669673
0	127199	2192084.208371929412	595.95869868992
0	127204	2192103.914476124152	19.70610419474
0	127219	2193205.222024418836	1101.3075482947
0	127224	2193354.402786082356	149.18076166352
0	127280	2194577.711933001595	1223.3091469192
0	127392	2195722.830832700253	252.48136866258
0	127401	2195815.557445416213	92.72661271596
0	127408	2195940.137304749415	124.5798593332
0	127423	2196617.400046969385	677.26274221997
0	127432	2196830.000004661619	212.59995769223
0	127449	2197006.611109393982	176.61110473236
0	127486	2197527.614926212751	521.00381681877
0	127501	2197879.034430245729	351.41950403298
0	127508	2197885.473375196156	6.438944950427
0	127565	2198798.831247518379	913.35787232222
0	127605	2199622.466779443327	823.63553192495
0	128169	2207279.044725465752	71.817987321283
0	128178	2207631.851765466749	352.807040001
0	128217	2208439.718443203001	807.86667773625
0	128232	2208852.532580117632	412.81413691463
0	128237	2208890.210623454779	37.678043337147
0	128316	2210737.42854202025	1847.2179185655
0	128323	2210818.972387002815	81.543844982565
0	128332	2210948.501728624253	129.52934162144
0	128347	2211283.379404605328	334.87767598108
0	128356	2211559.96523750026	276.58583289493
0	128361	2211618.125940661396	58.160703161136
0	128384	2212102.180269156809	484.05432849541