version 2
run Simulations-1-20191218-11:09:11-65753
attr configname Simulations
attr datetime 20191218-11:09:11
attr experiment Simulations
attr inifile omnetpp.ini
attr iterationvars "$seed=7, $0=1500"
attr iterationvarsf seed=7,1500-
attr measurement "$seed=7, $0=1500"
attr network WifiCelNetPassiveQueue
attr processid 65753
attr repetition 0
attr replication #0
attr resultdir results/Simulations/omnet
attr runnumber 1
attr seedset 7
itervar seed 7
param **.numJobs 10000
param *.OFFLOAD.deadline exponential(1500s)
param *.source.interArrivalTime exponential(120s)
param *.WIFI.serviceTime exponential(40s)
param *.CELL.serviceTime exponential(400s)
param *.OFFLOAD.switchToWi exponential(1524s)
param *.OFFLOAD.switchToCel exponential(3120s)
param *.LOCAL.serviceTime exponential(5s)
param *.REMOTE.serviceTime exponential(1s)

vector 0 WifiCelNetPassiveQueue.OFFLOAD queueLength:vector ETV
attr interpolationmode sample-hold
attr title "queue length, vector"
vector 1 WifiCelNetPassiveQueue.WIFI serviceTime:vector ETV
attr interpolationmode none
attr title "wifi Service, vector"
attr unit s
vector 2 WifiCelNetPassiveQueue.WIFI responseTime:vector ETV
attr interpolationmode none
attr title "Response Time, vector"
attr unit s
vector 3 WifiCelNetPassiveQueue.REMOTE serviceTime:vector ETV
attr interpolationmode none
attr title "wifi Service, vector"
attr unit s
vector 4 WifiCelNetPassiveQueue.REMOTE responseTime:vector ETV
attr interpolationmode none
attr title "Response Time, vector"
attr unit s
vector 5 WifiCelNetPassiveQueue.sink lifeTime:vector ETV
attr interpolationmode none
attr title "lifetime of arrived jobs, vector"
attr unit s
vector 6 WifiCelNetPassiveQueue.OFFLOAD storeCelTime:vector ETV
attr interpolationmode none
attr title "Time in Cell, vector"
attr unit s
vector 7 WifiCelNetPassiveQueue.OFFLOAD storeDeadline:vector ETV
attr interpolationmode none
attr title "deadline, vector"
attr unit s
vector 8 WifiCelNetPassiveQueue.CELL serviceTime:vector ETV
attr interpolationmode none
attr title "wifi Service, vector"
attr unit s
vector 9 WifiCelNetPassiveQueue.CELL responseTime:vector ETV
attr interpolationmode none
attr title "Response Time, vector"
attr unit s
vector 10 WifiCelNetPassiveQueue.OFFLOAD storeWifiTime:vector ETV
attr interpolationmode none
attr title "Time in Wifi, vector"
attr unit s
vector 11 WifiCelNetPassiveQueue.REMOTE queueLength:vector ETV
attr interpolationmode sample-hold
attr title "queue length, vector"
vector 12 WifiCelNetPassiveQueue.LOCAL serviceTime:vector ETV
attr interpolationmode none
attr title "wifi Service, vector"
attr unit s
vector 13 WifiCelNetPassiveQueue.LOCAL responseTime:vector ETV
attr interpolationmode none
attr title "Response Time, vector"
attr unit s
vector 14 WifiCelNetPassiveQueue.LOCAL queueLength:vector ETV
attr interpolationmode sample-hold
attr title "queue length, vector"
0	173549	3000010.2994296534	2
0	173550	3000131.94183345283	1
0	173555	3000154.183998751919	0
0	173568	3000479.321377745536	1
0	173569	3000540.589403505115	0
0	173603	3000878.521948466334	1
0	173604	3000881.715465848571	0
0	173645	3002004.655792046806	1
0	173646	3002017.086021366534	0
0	173660	3002408.860820029116	1
0	173662	3002414.800736202659	2
0	173663	3002461.558654127147	1
0	173669	3002545.357760023878	2
0	173671	3002716.073293422677	3
0	173673	3002732.238803777726	4
0	173674	3002893.314372716539	3
0	173676	3002916.298610288615	2
0	173681	3003022.620647994157	1
0	173690	3003040.460598145414	0
0	173731	3003745.758999744507	1
0	173733	3003808.397081300296	2
0	173734	3003826.048811734234	1
0	173739	3003946.253391971263	0
0	173759	3004360.541603575807	1
0	173760	3004404.220783515357	0
0	173817	3005922.708651743226	1
0	173818	3005925.156081565152	0
0	173866	3007312.246571724478	1
0	173867	3007417.589710920713	0
0	173880	3007544.313014292012	1
0	173882	3007587.704987134298	2
0	173884	3007592.756874237193	3
0	173885	3007600.822242935754	2
0	173890	3007609.832948865859	1
0	173895	3007632.508651638149	0
0	173978	3009166.701898165389	1
0	173979	3009167.170044521643	0
0	174042	3010720.006630689595	1
0	174044	3010803.268345337167	2
0	174045	3010808.669631155269	1
0	174050	3010872.043168504416	2
0	174051	3010912.52257164074	1
0	174054	3010930.01514763454	2
0	174055	3010939.666892052381	1
0	174061	3010962.223295207956	2
0	174062	3010989.946332007075	1
0	174067	3011023.232394318541	0
0	174077	3011124.925811657696	1
0	174079	3011168.95920226306	2
0	174080	3011175.157905326108	1
0	174085	3011215.080845446624	0
0	174098	3011312.740197452809	1
0	174100	3011347.814184026943	2
0	174101	3011351.609466698674	1
0	174107	3011406.891285501	2
0	174108	3011437.370935841548	1
0	174114	3011501.596758989277	2
0	174116	3011542.452506164881	3
0	174117	3011547.138750907311	2
0	174122	3011554.313770313463	1
0	174128	3011603.332791937048	2
0	174129	3011618.217575785315	1
0	174135	3011633.42387579246	2
0	174137	3011762.06533156075	3
0	174138	3011784.496758749658	2
0	174143	3011825.323428791246	1
0	174148	3011861.380769269956	0
0	174154	3011865.386469246728	1
0	174156	3011891.661573431779	2
0	174157	3011962.039982798907	1
0	174162	3011970.041077195663	0
0	174196	3012501.849426856593	1
0	174197	3012525.614380917646	0
0	174203	3012531.728613925162	1
0	174205	3012565.368845589981	2
0	174206	3012591.431068217291	1
0	174212	3012602.227150742263	2
0	174213	3012616.132569199533	1
0	174218	3012621.141439786581	0
0	174252	3013210.828908651641	1
0	174253	3013217.554577639287	0
0	174273	3013325.005056056533	1
0	174274	3013402.179595236871	0
0	174294	3013857.851024898944	1
0	174295	3013877.279475988832	0
0	174350	3014419.569946108207	1
0	174351	3014438.322743008564	0
0	174378	3015180.499545709357	1
0	174380	3015255.898374449452	2
0	174382	3015273.679801496547	3
0	174384	3015280.423277224829	4
0	174385	3015325.97176619721	3
0	174390	3015379.385862986775	2
0	174395	3015391.903731765697	1
0	174400	3015497.790791657627	0
0	174413	3015599.694429286637	1
0	174415	3015618.856289963037	2
0	174416	3015649.581576422574	1
0	174421	3015710.335830072745	0
0	174484	3016898.703755116434	1
0	174486	3017040.616739898447	2
0	174487	3017217.392732858886	1
0	174491	3017225.449949778047	0
0	174497	3017609.194712496742	1
0	174498	3017799.03049508098	0
0	174504	3017846.70361568447	1
0	174505	3018034.557688766977	0
0	174511	3018127.803384685368	1
0	174512	3018184.640942260545	0
0	174538	3018960.316122259177	1
0	174540	3019185.830298048703	2
0	174542	3019318.542722908912	3
0	174544	3019347.953030244083	4
0	174546	3019350.168048350351	5
0	174548	3019372.288557136334	6
0	174550	3019409.59922269651	7
0	174552	3019416.458141500795	8
0	174554	3019449.39449952805	9
0	174555	3019617.758426547467	8
0	174557	3019620.790361267173	7
0	174562	3019639.171542974795	6
0	174568	3019717.846133052777	5
0	174573	3019743.831980270487	4
0	174578	3019810.935179047299	3
0	174584	3019849.66439160907	2
0	174590	3019974.677756785796	3
0	174592	3019983.311495559397	4
0	174597	3020026.197672517024	3
0	174602	3020043.880403821914	2
0	174607	3020081.549911281282	1
0	174612	3020095.820681128991	0
0	174625	3020146.683530233342	1
0	174627	3020228.405990399176	2
0	174628	3020245.042121060882	1
0	174633	3020274.083342916803	0
0	174647	3020507.415666833511	1
0	174649	3020511.538826846836	2
0	174650	3020535.769192029144	1
0	174654	3020738.888815539754	0
0	174657	3020744.086638144579	1
0	174658	3020804.185992177245	0
0	174664	3020809.737783559854	1
0	174665	3020812.691544045531	0
0	174671	3020853.633166308193	1
0	174672	3020887.705320513472	0
0	174724	3021449.766442855195	1
0	174725	3021492.122264848946	0
0	174753	3022184.045374393484	1
0	174755	3022226.506306614523	2
0	174756	3022256.969258996295	1
0	174761	3022438.706909170149	0
0	174767	3022467.141652566658	1
0	174769	3022541.364076410627	2
0	174770	3022564.974117945685	1
0	174775	3022646.269374671248	2
0	174777	3022680.595413344184	3
0	174779	3022741.628469142734	4
0	174780	3022824.160601087274	3
0	174786	3022850.8823542378	4
0	174787	3022939.215534248182	3
0	174791	3022977.043476666278	2
0	174796	3023031.056334334483	3
0	174798	3023050.265618448954	4
0	174799	3023138.731079512409	3
0	174802	3023146.718561693825	4
0	174806	3023196.645930835275	5
0	174808	3023200.165269655292	6
0	174809	3023230.025629656555	5
0	174814	3023271.127192235629	6
0	174816	3023271.689586326173	7
0	174818	3023290.424824759371	8
0	174819	3023331.716311919523	7
0	174824	3023523.503233691286	6
0	174829	3023527.228839712254	5
0	174835	3023561.904123402228	6
0	174837	3023588.236252225091	7
0	174839	3023771.654505046524	8
0	174841	3023785.753450408598	9
0	174843	3023847.980612054758	10
0	174845	3023955.317437099674	11
0	174847	3023982.671750346099	12
0	174848	3024036.621057805606	11
0	174854	3024345.215017305894	12
0	174855	3024347.049994698641	11
0	174861	3024377.348521942895	12
0	174862	3024487.237707857165	11
0	174867	3024536.373190846301	12
0	174868	3024546.724373671874	11
0	174870	3024548.870651324704	10
0	174875	3024582.168856389657	9
0	174881	3024597.11133130789	10
0	174882	3024600.734629376122	9
0	174887	3024601.511344863121	8
0	174892	3024609.56143464037	7
0	174898	3024641.763267402021	8
0	174899	3024650.132774222248	7
0	174904	3024654.142094578097	6
0	174909	3024660.378288449014	5
0	174915	3024680.620607441467	4
0	174920	3024744.490128070032	3
0	174925	3024751.560940889091	2
0	174931	3024754.833545641626	3
0	174932	3024851.990870537626	2
0	174937	3024899.604071160095	1
0	174946	3024918.820095942638	0
0	175015	3026497.756230219577	1
0	175017	3026537.026210452894	2
0	175018	3026552.374459476675	1
0	175024	3026629.775247728144	2
0	175025	3026651.623996375824	1
0	175030	3026654.305402793659	0
0	175036	3026658.770675911441	1
0	175037	3026694.882213858066	0
0	175100	3027823.653550461897	1
0	175101	3027870.142195729346	0
0	175104	3027943.767299809038	1
0	175109	3027978.468747591129	0
0	175185	3029155.119144498275	1
0	175186	3029156.856288537351	0
0	175199	3029281.24583175249	1
0	175200	3029307.302139110965	0
0	175213	3029382.591529101469	1
0	175215	3029404.475432619825	2
0	175216	3029420.650110884971	1
0	175222	3029471.131923358586	2
0	175223	3029536.138314357836	1
0	175229	3029539.24609227343	2
0	175230	3029577.610868568964	1
0	175236	3029595.667694513904	2
0	175237	3029617.11841427127	1
0	175242	3029646.691281019195	0
0	175248	3029654.826277223019	1
0	175249	3029708.372144919172	0
0	175276	3030103.302476374724	1
0	175277	3030128.631346540371	0
0	175283	3030141.334654500053	1
0	175284	3030145.103463790937	0
0	175297	3030228.736595685775	1
0	175298	3030236.75693644173	0
0	175311	3030405.441212770697	1
0	175313	3030415.84130017261	2
0	175314	3030436.924327414142	1
0	175319	3030439.11813304628	0
0	175333	3030692.466848902409	1
0	175334	3030731.406440705268	0
0	175338	3030731.882064221575	1
0	175342	3030744.248121133243	2
0	175343	3030897.046160965355	1
0	175349	3031121.386791729869	2
0	175351	3031433.755029548118	3
0	175353	3031499.105624713975	4
0	175355	3031693.187652304202	5
0	175357	3031706.690027414414	6
0	175359	3031707.439078120078	7
0	175360	3031782.998483792578	6
0	175362	3031789.164198773411	5
0	175367	3031845.377884322006	4
0	175376	3031885.22772036734	3
0	175382	3031892.688772557772	4
0	175383	3031904.96697400115	3
0	175388	3031914.613064280381	2
0	175394	3031921.940754189795	3
0	175396	3031938.831029807046	4
0	175398	3031944.923695172475	5
0	175399	3031987.747179045188	4
0	175404	3032032.003456343785	3
0	175409	3032081.457486031566	2
0	175412	3032082.061026064446	1
0	175419	3032187.330865849651	0
0	175446	3032442.213341023437	1
0	175447	3032456.017696243575	0
0	175453	3032464.25652460176	1
0	175454	3032485.36377114145	0
0	175516	3033150.75243887291	1
0	175517	3033191.80244002253	0
0	175579	3034351.858099661841	1
0	175580	3034366.906587904885	0
0	175586	3034396.186608905942	1
0	175587	3034431.234248037327	0
0	175593	3034469.40283118322	1
0	175595	3034515.670111904099	2
0	175596	3034580.706797495668	1
0	175601	3034586.733969972134	0
0	175628	3035054.207821864827	1
0	175630	3035083.552025351093	2
0	175631	3035154.6777459137	1
0	175636	3035171.328565520288	0
0	175650	3035526.773888533558	1
0	175652	3035538.451159475278	2
0	175653	3035653.795864304828	1
0	175658	3035719.085253751805	2
0	175660	3035787.49421504552	3
0	175662	3035899.249507836777	4
0	175663	3035969.107006193668	3
0	175668	3036068.890969270591	2
0	175674	3036180.211387089761	3
0	175675	3036288.888150052217	2
0	175681	3036335.841964977342	3
0	175683	3036355.840536518521	4
0	175685	3036495.16754738231	5
0	175687	3036534.859770886049	6
0	175688	3036601.612599592978	5
0	175694	3036661.021378967679	6
0	175696	3036696.36015367793	7
0	175698	3036895.62596480177	8
0	175700	3036929.01308661434	9
0	175702	3036952.408273919302	10
0	175703	3036994.359743775571	9
0	175708	3037019.109473532043	10
0	175710	3037069.761452333376	11
0	175712	3037101.586639838033	12
0	175713	3037115.225139986502	11
0	175717	3037138.255453664893	10
0	175721	3037186.413731164155	9
0	175727	3037251.752376668677	10
0	175729	3037399.194507925114	11
0	175731	3037673.239380062503	12
0	175732	3037681.843084990334	11
0	175734	3037714.479152850837	10
0	175740	3037726.878535964912	11
0	175745	3037795.509917803638	10
0	175750	3037828.596348164114	9
0	175755	3037857.041566252529	8
0	175760	3037951.691174617639	7
0	175765	3037966.26361119422	6
0	175770	3037983.38033679255	5
0	175776	3038049.539178379313	6
0	175777	3038051.629527729305	5
0	175783	3038085.203997790291	6
0	175784	3038155.507410165481	5
0	175790	3038167.82578866869	6
0	175792	3038168.801528775544	7
0	175793	3038170.817614447022	6
0	175796	3038171.351240254551	5
0	175803	3038187.550848694005	4
0	175809	3038216.516123559517	5
0	175810	3038219.458979341795	4
0	175815	3038249.418274618559	3
0	175820	3038296.436124338871	2
0	175825	3038301.598935240269	1
0	175830	3038316.609400937063	0
0	175906	3039869.274493456836	1
0	175907	3039955.467103419461	0
0	175913	3040012.725875554735	1
0	175914	3040034.504472419886	0
0	175934	3040307.586663708818	1
0	175935	3040314.017059497763	0
0	175969	3040727.693853849787	1
0	175970	3040732.999634363733	0
0	176025	3041315.996214017049	1
0	176026	3041321.503562054742	0
0	176032	3041339.603936940871	1
0	176033	3041354.834946024059	0
0	176039	3041377.880017343859	1
0	176040	3041437.082071860578	0
0	176109	3042625.61399536474	1
0	176111	3042654.505111611748	2
0	176112	3042659.866677600918	1
0	176117	3042673.737346724389	0
0	176123	3042709.248882366617	1
0	176124	3042757.40095043616	0
0	176200	3044399.117194066834	1
0	176201	3044427.188322156247	0
0	176236	3044856.194070110773	1
0	176237	3044889.783474667303	0
0	176257	3045523.840673376806	1
0	176258	3045549.850256701431	0
0	176264	3045682.210630061669	1
0	176266	3045879.242926971904	2
0	176267	3045897.796935881629	1
0	176272	3046231.178951011201	2
0	176274	3046268.211877406803	3
0	176275	3046374.109235341303	2
0	176281	3046429.961385882851	3
0	176283	3046454.54041170261	4
0	176285	3046557.911074621102	5
0	176286	3046790.649481378461	4
0	176288	3046803.61454131635	3
0	176293	3046829.876216172556	2
0	176299	3046966.063962873743	3
0	176301	3047057.273989466549	4
0	176303	3047119.327643623619	3
0	176309	3047165.80594166093	4
0	176310	3047235.876925166127	3
0	176315	3047250.446449588653	2
0	176320	3047296.448063898614	1
0	176329	3047334.156993270615	0
0	176378	3048577.373747811812	1
0	176379	3048587.695512981931	0
0	176389	3048705.373472190151	1
0	176390	3048724.284901406858	0
0	176449	3049561.844725431752	1
0	176451	3049622.593270713838	2
0	176452	3049622.766514253019	1
0	176457	3049624.451208678955	0
0	176471	3050028.737013570158	1
0	176473	3050046.590279424495	2
0	176474	3050055.323896925291	1
0	176480	3050152.124439220636	2
0	176481	3050498.047362317777	1
0	176483	3050529.35745979872	0
0	176489	3050604.018609988919	1
0	176490	3050612.069544086009	0
0	176503	3050686.980146303082	1
0	176504	3050697.472976359227	0
0	176542	3051225.996890878753	1
0	176544	3051247.378275903195	2
0	176546	3051319.262503576148	3
0	176547	3051330.694912289593	2
0	176552	3051350.751402387528	1
0	176558	3051351.608443144368	2
0	176559	3051356.505236040443	1
0	176564	3051380.592114876526	0
0	176613	3052614.176474271811	1
0	176615	3053005.074934429143	2
0	176616	3053034.967012658165	1
0	176618	3053046.278822667884	0
0	176638	3053137.074580248267	1
0	176639	3053145.305889988753	0
0	176656	3053301.383850823358	1
0	176657	3053301.414680769787	0
0	176777	3056232.147520263685	1
0	176778	3056258.28296022693	0
0	176784	3056307.610894220524	1
0	176785	3056323.441544038366	0
0	176798	3056524.070391854168	1
0	176799	3056572.349410180524	0
0	176820	3056887.805030761538	1
0	176822	3056912.939440086109	2
0	176824	3056935.635435859608	3
0	176826	3056936.121904319938	4
0	176828	3057061.521522871884	5
0	176830	3057186.209445892829	6
0	176831	3057306.949213880015	5
0	176836	3057311.407921372609	4
0	176841	3057394.591873027865	3
0	176843	3057466.144711821402	2
0	176848	3057483.229800357269	1
0	176853	3057528.109133334755	0
0	176859	3057543.132242564321	1
0	176860	3057568.392163212241	0
0	176870	3057624.211590577502	1
0	176871	3057708.925662959182	0
0	176884	3057777.300692949809	1
0	176885	3057796.695837707711	0
0	176899	3058174.84643666549	1
0	176901	3058186.098744770168	2
0	176902	3058348.168625603036	1
0	176906	3058385.77832950967	0
0	176912	3058464.045648305329	1
0	176913	3058465.983728497665	0
0	176942	3058998.766444647173	1
0	176944	3059086.974327333499	2
0	176945	3059256.619617645691	1
0	176947	3059270.940332852602	0
0	176960	3059554.786056925813	1
0	176965	3059762.965049249937	0
0	176978	3059980.114244289371	1
0	176979	3059996.339725032813	0
0	176999	3060289.956577935175	1
0	177000	3060290.355099636984	0
0	177014	3060614.59880747898	1
0	177016	3060824.911063087468	2
0	177017	3060999.593785220391	1
0	177022	3061197.620098797925	0
0	177028	3061365.025219694292	1
0	177030	3061480.022698981647	2
0	177032	3061537.39251450309	3
0	177033	3061607.889505268582	2
0	177039	3061742.169879906275	3
0	177041	3061846.42547908701	4
0	177043	3061940.248231080969	5
0	177044	3061942.4915259557	4
0	177048	3061943.336281363985	5
0	177051	3061959.675265115889	4
0	177055	3062059.081130529082	3
0	177061	3062137.54595079223	4
0	177063	3062151.129509618296	5
0	177064	3062187.677450984346	4
0	177069	3062224.695463123445	3
0	177074	3062226.36915457827	2
0	177076	3062233.674395900797	1
0	177086	3062275.498172040333	2
0	177088	3062304.755493118739	3
0	177089	3062375.185514973042	2
0	177094	3062417.300312030495	1
0	177099	3062431.383440187539	0
0	177105	3062436.259110537281	1
0	177106	3062542.387055631342	0
0	177112	3062545.552541855446	1
0	177113	3062587.628773583027	0
0	177147	3063199.14963237287	1
0	177148	3063228.875160893241	0
0	177154	3063242.094170101186	1
0	177156	3063277.411196592897	2
0	177158	3063313.719914606037	3
0	177159	3063352.292068588917	2
0	177164	3063423.315296642154	1
0	177170	3063471.131977920423	2
0	177171	3063487.968476139859	1
0	177176	3063554.564621913927	0
0	177182	3063607.242084309107	1
0	177183	3063613.036992238712	0
0	177259	3065231.367711362409	1
0	177260	3065246.43091830164	0
0	177308	3065989.56952153817	1
0	177309	3066023.326136554367	0
0	177329	3066270.88139193287	1
0	177330	3066348.146917895379	0
0	177364	3067171.479426072093	1
0	177365	3067246.344935147915	0
0	177385	3067431.350769209809	1
0	177387	3067473.855297556302	2
0	177388	3067505.465964713592	1
0	177394	3067508.316091946231	2
0	177395	3067519.457323049901	1
0	177401	3067579.485586999397	2
0	177402	3067599.582792279696	1
0	177407	3067613.160983584613	0
0	177427	3067842.960396853461	1
0	177428	3067905.581433524992	0
0	177434	3068016.280368485659	1
0	177435	3068076.464885493964	0
0	177441	3068077.29501305467	1
0	177442	3068079.015124396106	0
0	177462	3068451.153832335856	1
0	177463	3068468.974871430119	0
0	177483	3068807.044814011809	1
0	177485	3068903.526493610093	2
0	177486	3068932.44018001746	1
0	177492	3068943.677600509655	2
0	177493	3068951.996422400445	1
0	177498	3068968.924365514587	0
0	177581	3071129.31795539546	1
0	177582	3071163.831422082777	0
0	177588	3071175.459221570239	1
0	177589	3071185.531448326649	0
0	177616	3071767.555538648599	1
0	177617	3071805.00525503413	0
0	177624	3071827.978251003353	1
0	177626	3071924.213772062198	2
0	177628	3072222.454848400446	3
0	177630	3072289.834428568308	4
0	177631	3072433.947625849425	3
0	177636	3072593.056164221189	2
0	177641	3072865.585593061883	3
0	177643	3072887.166385321985	4
0	177645	3072890.803469966427	5
0	177647	3072995.709753373448	6
0	177649	3073007.363642484026	7
0	177650	3073045.800067074592	6
0	177653	3073045.927875763103	5
0	177659	3073064.414690855929	4
0	177665	3073108.847816193054	5
0	177667	3073133.965932348484	6
0	177669	3073154.115679102673	7
0	177670	3073304.496465411523	6
0	177675	3073305.968526356302	7
0	177676	3073309.943929758039	6
0	177678	3073384.108090315105	5
0	177684	3073545.909751365229	4
0	177689	3073588.155356072381	3
0	177694	3073597.755122793701	2
0	177699	3073641.625564167972	1
0	177704	3073668.508498633419	0
0	177731	3073981.993175411656	1
0	177732	3073996.192088240823	0
0	177756	3074423.675881445227	1
0	177757	3074471.318394066476	0
0	177777	3074680.804942719354	1
0	177779	3074688.599837789061	2
0	177780	3074720.457180424677	1
0	177785	3074762.974416225296	0
0	177798	3074835.532599099865	1
0	177799	3074840.593688814245	0
0	177861	3075795.059284312308	1
0	177862	3075802.818823128878	0
0	177868	3075810.298639739867	1
0	177870	3075941.23578371386	2
0	177872	3075957.15851943358	3
0	177873	3076010.455303773366	2
0	177878	3076038.413563328849	1
0	177883	3076119.341712455864	0
0	177925	3077105.610421500571	1
0	177927	3077129.430879167827	2
0	177929	3077242.857990866927	3
0	177930	3077278.721636435991	2
0	177936	3077306.168915723781	3
0	177938	3077329.06482387828	4
0	177940	3077396.637688569753	5
0	177941	3077568.272254672712	4
0	177946	3077689.909741475476	5
0	177948	3077706.899819442792	6
0	177949	3077710.729873325411	5
0	177955	3077747.728094938656	6
0	177957	3077807.616519821536	7
0	177958	3077901.562897283458	6
0	177963	3078019.987598003756	5
0	177965	3078050.794568589748	4
0	177968	3078051.170901815235	3
0	177975	3078057.056489552468	2
0	177980	3078069.26903452602	1
0	177985	3078081.759097663097	0
0	178002	3078281.806625008241	1
0	178003	3078328.952074188995	0
0	178053	3079863.157876596244	1
0	178054	3079902.563766595163	0
0	178060	3079913.358308209581	1
0	178061	3079961.796377117207	0
0	178088	3080077.702877404766	1
0	178089	3080093.077569254299	0
0	178110	3081140.312920541091	1
0	178111	3081219.141170194957	0
0	178117	3081223.844292867707	1
0	178118	3081335.251228456761	0
0	178124	3081422.986338443208	1
0	178126	3081447.113871056877	2
0	178127	3081499.008722342166	1
0	178131	3081509.547235843644	0
0	178137	3081596.083606009778	1
0	178138	3081610.233466700705	0
0	178144	3081716.374937610041	1
0	178146	3081792.225168249741	2
0	178148	3081934.730670921388	3
0	178150	3081938.784288365046	4
0	178151	3082070.972138343757	3
0	178156	3082095.553464529696	4
0	178158	3082098.595094244738	5
0	178160	3082392.27663245287	6
0	178161	3082508.187147586621	5
0	178166	3082524.020927982841	6
0	178168	3082706.65438051022	7
0	178169	3082765.766928785817	6
0	178171	3082774.419859384674	5
0	178178	3082820.895641490912	6
0	178180	3083027.209479333212	7
0	178181	3083031.840020773104	6
0	178184	3083044.134384834735	7
0	178187	3083159.132775645343	6
0	178191	3083461.093157052756	5
0	178195	3083471.221882813694	4
0	178199	3083495.02036852882	3
0	178204	3083566.879858650278	2
0	178210	3083586.009351067308	3
0	178212	3083854.315303953445	4
0	178213	3083870.602960016985	3
0	178218	3083927.968184361761	4
0	178220	3083932.587274367556	5
0	178222	3083954.939401777202	6
0	178223	3083980.282368785946	5
0	178229	3083981.856400734339	6
0	178231	3084012.941699395222	7
0	178233	3084028.547243946476	8
0	178234	3084057.713028321505	7
0	178239	3084106.505254908309	8
0	178240	3084137.109658655477	7
0	178245	3084199.526664277397	8
0	178246	3084217.555884680703	7
0	178248	3084217.847482160594	6
0	178254	3084349.146419046312	5
0	178260	3084428.225976558728	6
0	178262	3084559.710295593923	7
0	178263	3084620.688564124319	6
0	178269	3084641.529641042924	7
0	178270	3084703.034745202882	6
0	178274	3084803.304811441718	5
0	178278	3084836.086788035622	4
0	178283	3084854.940209497828	3
0	178288	3084877.483040401626	2
0	178292	3084902.782848556147	1
0	178298	3084950.952231073523	2
0	178300	3084966.102922667308	3
0	178302	3085134.667885878608	4
0	178304	3085163.323325826932	5
0	178306	3085315.477229996452	6
0	178308	3085404.236034105619	7
0	178310	3085439.034655228683	8
0	178312	3085460.672394931458	9
0	178314	3085469.983434508395	10
0	178315	3085489.195684503998	9
0	178317	3085495.471348518436	8
0	178328	3085592.413748117493	7
0	178334	3085622.897592629314	8
0	178336	3085625.218083073047	7
0	178342	3085627.379897091771	8
0	178343	3085661.021638944977	7
0	178348	3085662.260207018937	6
0	178354	3085687.620916689993	5
0	178359	3085690.309261216894	4
0	178364	3085696.827094253267	3
0	178369	3085821.73653725859	2
0	178374	3085896.926691440479	1
0	178379	3085923.185456011471	0
0	178406	3086429.114828822842	1
0	178407	3086465.877745212836	0
0	178420	3086632.683530146017	1
0	178422	3086658.150582838071	2
0	178423	3086666.027864605064	1
0	178428	3086695.438548219829	0
0	178456	3087592.106992124023	1
0	178458	3087640.087421466261	2
0	178460	3087844.065352268508	3
0	178462	3087927.162897509975	4
0	178463	3088045.630805147508	3
0	178469	3088133.316943429328	4
0	178471	3088179.630898418729	5
0	178472	3088400.3558628902	4
0	178477	3088425.151039957476	5
0	178479	3088494.53513015735	6
0	178480	3088562.708419652669	5
0	178484	3088685.114756780223	4
0	178490	3088856.513582858234	5
0	178491	3088977.354874652848	4
0	178497	3088989.110381442096	5
0	178498	3089000.199005083434	4
0	178503	3089069.912979316488	5
0	178505	3089077.123858249197	6
0	178507	3089083.923976756951	7
0	178509	3089170.029566399884	8
0	178510	3089179.925603116874	7
0	178514	3089192.524288562685	6
0	178519	3089252.254481022639	7
0	178520	3089275.968203698763	6
0	178525	3089285.985262861624	5
0	178530	3089320.99479526422	6
0	178531	3089323.712631890139	5
0	178535	3089356.148139840355	4
0	178540	3089402.298114146907	3
0	178542	3089431.747565000638	2
0	178547	3089490.549630683752	1
0	178552	3089525.740141461706	0
0	178612	3091077.546158776282	1
0	178613	3091163.999935921211	0
0	178711	3094043.070404571944	1
0	178712	3094115.78331005715	0
0	178767	3094761.760733929223	1
0	178768	3094837.484790304535	0
0	178789	3095019.085220257321	1
0	178790	3095083.295063555339	0
0	178796	3095101.795085540862	1
0	178797	3095222.295374507754	0
0	178802	3095227.429433785634	1
0	178804	3095233.870849820086	2
0	178806	3095331.903796011579	3
0	178808	3095357.662487656634	4
0	178810	3095389.364971937566	5
0	178812	3095476.967158220258	6
0	178813	3095536.274160045777	5
0	178815	3095550.079773811448	4
0	178821	3095561.320860181734	3
0	178826	3095594.314090665112	2
0	178831	3095601.057310443131	1
0	178836	3095606.712809800233	0
0	178860	3095848.020413574785	1
0	178862	3095859.309395198193	2
0	178863	3095863.561752630798	1
0	178868	3095892.387736986338	0
0	178888	3096268.110803706663	1
0	178889	3096367.847137371145	0
0	178895	3096369.942376976262	1
0	178896	3096471.039434510119	0
0	178937	3097175.974951056095	1
0	178939	3097183.397504373547	2
0	178940	3097260.244445565269	1
0	178945	3097327.86581632959	0
0	178958	3097520.737788190535	1
0	178960	3097530.651820828878	2
0	178962	3097578.667290456651	3
0	178963	3097613.135224212421	2
0	178968	3097628.191517288453	1
0	178973	3097675.317856250644	0
0	178979	3097704.338555758452	1
0	178980	3097728.802516204346	0
0	179033	3099131.161438669614	1
0	179034	3099271.835444839345	0
0	179040	3099303.623396798915	1
0	179042	3099426.948064805714	2
0	179043	3099465.974948603028	1
0	179048	3099784.062074085516	0
0	179054	3099847.118871100947	1
0	179056	3099865.477697586644	2
0	179058	3099890.710561215597	3
0	179059	3099907.406404278979	2
0	179062	3099965.476893858844	3
0	179063	3099974.525287746696	2
0	179068	3099977.626827791279	1
0	179073	3099999.671727522738	0
0	179079	3100009.602163972808	1
0	179080	3100043.171355511198	0
0	179104	3100315.010644979167	1
0	179105	3100316.182372980189	0
0	179139	3101355.789381522717	1
0	179140	3101395.793348290426	0
0	179209	3102851.951361241225	1
0	179210	3102874.843748422797	0
0	179244	3103191.486034913941	1
0	179246	3103245.941026079811	2
0	179248	3103288.950426620789	3
0	179249	3103303.443059013463	2
0	179254	3103354.205513785238	1
0	179259	3103438.082271746031	0
0	179272	3103538.580404376579	1
0	179273	3103547.560219281193	0
0	179300	3103700.36826519916	1
0	179301	3103733.563955575428	0
0	179329	3104293.052811133888	1
0	179331	3104310.279635555186	2
0	179333	3104362.442318246646	3
0	179335	3104403.966480117334	4
0	179337	3104410.827573451884	5
0	179339	3104429.296756437746	6
0	179340	3104523.612740961877	5
0	179344	3104631.964341287301	4
0	179349	3104755.461777120775	5
0	179350	3104856.686992218478	4
0	179356	3104873.710573895504	5
0	179357	3105086.041517801231	4
0	179363	3105115.49074650086	5
0	179365	3105160.518991262398	6
0	179366	3105190.370445151455	5
0	179371	3105250.509976202612	6
0	179372	3105338.628988596757	5
0	179377	3105339.721032461346	4
0	179379	3105344.517379163368	3
0	179382	3105345.329471217876	4
0	179388	3105421.136424173215	5
0	179389	3105457.261263598437	4
0	179394	3105576.712448417216	3
0	179399	3105617.787511851931	2
0	179404	3105662.547827639701	3
0	179405	3105741.816939963629	2
0	179409	3105876.099109338298	1
0	179414	3105900.059668517096	2
0	179416	3106073.924867735216	3
0	179417	3106167.620955102425	2
0	179422	3106174.237473863624	1
0	179427	3106177.493732110849	0
0	179448	3106534.526668885462	1
0	179449	3106548.820689398031	0
0	179469	3106737.67588964473	1
0	179470	3106775.866906457244	0
0	179476	3106837.307918088522	1
0	179477	3106886.513984696824	0
0	179504	3107780.801732083518	1
0	179505	3107788.608673418836	0
0	179532	3108575.69993408295	1
0	179533	3108595.268090156589	0
0	179546	3108724.449287958085	1
0	179547	3108735.300986096332	0