version 2
run Simulations-16-20191215-22:53:56-18910
attr configname Simulations
attr datetime 20191215-22:53:56
attr experiment Simulations
attr inifile omnetpp.ini
attr iterationvars "$seed=7, $0=9000"
attr iterationvarsf seed=7,9000-
attr measurement "$seed=7, $0=9000"
attr network WifiCelNetPassiveQueue
attr processid 18910
attr repetition 0
attr replication #0
attr resultdir results/Simulations/omnet
attr runnumber 16
attr seedset 7
itervar seed 7
param **.numJobs 14000
param *.OFFLOAD.deadline exponential(9000s)
param *.source.interArrivalTime exponential(120s)
param *.WIFI.serviceTime exponential(40s)
param *.CELL.serviceTime exponential(400s)
param *.OFFLOAD.switchToWi exponential(1524s)
param *.OFFLOAD.switchToCel exponential(3120s)
param *.LOCAL.serviceTime exponential(5s)
param *.REMOTE.serviceTime exponential(1s)

vector 0 WifiCelNetPassiveQueue.OFFLOAD queueLength:vector ETV
attr interpolationmode sample-hold
attr title "queue length, vector"
vector 1 WifiCelNetPassiveQueue.OFFLOAD storeDeadline:vector ETV
attr interpolationmode none
attr title "deadline, vector"
attr unit s
vector 2 WifiCelNetPassiveQueue.CELL serviceTime:vector ETV
attr interpolationmode none
attr title "wifi Service, vector"
attr unit s
vector 3 WifiCelNetPassiveQueue.CELL responseTime:vector ETV
attr interpolationmode none
attr title "Response Time, vector"
attr unit s
vector 4 WifiCelNetPassiveQueue.REMOTE serviceTime:vector ETV
attr interpolationmode none
attr title "wifi Service, vector"
attr unit s
vector 5 WifiCelNetPassiveQueue.REMOTE responseTime:vector ETV
attr interpolationmode none
attr title "Response Time, vector"
attr unit s
vector 6 WifiCelNetPassiveQueue.sink lifeTime:vector ETV
attr interpolationmode none
attr title "lifetime of arrived jobs, vector"
attr unit s
vector 7 WifiCelNetPassiveQueue.OFFLOAD storeWifiTime:vector ETV
attr interpolationmode none
attr title "Time in Wifi, vector"
attr unit s
vector 8 WifiCelNetPassiveQueue.WIFI serviceTime:vector ETV
attr interpolationmode none
attr title "wifi Service, vector"
attr unit s
vector 9 WifiCelNetPassiveQueue.WIFI responseTime:vector ETV
attr interpolationmode none
attr title "Response Time, vector"
attr unit s
vector 10 WifiCelNetPassiveQueue.OFFLOAD storeCelTime:vector ETV
attr interpolationmode none
attr title "Time in Cell, vector"
attr unit s
vector 11 WifiCelNetPassiveQueue.LOCAL serviceTime:vector ETV
attr interpolationmode none
attr title "wifi Service, vector"
attr unit s
vector 12 WifiCelNetPassiveQueue.LOCAL responseTime:vector ETV
attr interpolationmode none
attr title "Response Time, vector"
attr unit s
vector 13 WifiCelNetPassiveQueue.REMOTE queueLength:vector ETV
attr interpolationmode sample-hold
attr title "queue length, vector"
vector 14 WifiCelNetPassiveQueue.LOCAL queueLength:vector ETV
attr interpolationmode sample-hold
attr title "queue length, vector"
0	88830	1500110.991855467735	3
0	88832	1500128.139289489422	4
0	88834	1500162.672671975897	5
0	88835	1500178.961258698081	4
0	88841	1500193.381185809249	5
0	88844	1500800.23319376121	6
0	88845	1501019.82225530776	5
0	88850	1501076.74354954184	4
0	88855	1501104.953202480851	3
0	88860	1501107.462569070684	2
0	88865	1501273.774321902406	1
0	88870	1501284.504767674077	0
0	88897	1501389.401840323047	1
0	88898	1501406.689395923413	0
0	88981	1502881.721251084576	1
0	88982	1502915.787387243472	0
0	89009	1503428.586603416848	1
0	89011	1503444.773891103284	2
0	89013	1503451.711716455595	3
0	89014	1503461.88171195494	2
0	89018	1503462.692786071436	3
0	89021	1503480.682125972423	2
0	89026	1503495.811078915163	1
0	89032	1503497.552737633643	2
0	89033	1503500.956287042524	1
0	89038	1503527.387254057094	0
0	89072	1503917.558707386393	1
0	89074	1503920.305856627966	2
0	89075	1503961.703544662354	1
0	89080	1503989.289737767404	0
0	89149	1505404.472706669265	1
0	89150	1505438.956703848983	0
0	89184	1505788.384884572936	1
0	89186	1505801.840590582782	2
0	89187	1505811.157357003931	1
0	89192	1505822.269018126398	0
0	89198	1505889.535711620653	1
0	89199	1505931.343848563523	0
0	89233	1506501.317226567162	1
0	89234	1506533.338404407292	0
0	89240	1506608.13544451305	1
0	89241	1506687.64905210737	0
0	89254	1506855.369459558146	1
0	89255	1506875.273649473484	0
0	89331	1508830.02105304596	1
0	89332	1508837.619862498672	0
0	89345	1508893.967671851721	1
0	89347	1508894.689036360538	2
0	89349	1508932.5049477295	3
0	89351	1508954.309878091236	4
0	89352	1508963.002014447383	3
0	89358	1509002.021241366986	4
0	89359	1509020.27808424696	3
0	89364	1509115.754961092699	2
0	89369	1509125.661961822327	1
0	89374	1509139.4325289188	0
0	89380	1509146.17881839944	1
0	89381	1509153.768925235483	0
0	89394	1509181.090979609446	1
0	89395	1509225.908284131402	0
0	89401	1509278.003216816171	1
0	89402	1509296.621066821964	0
0	89450	1509850.200572572952	1
0	89451	1509901.428692848397	0
0	89464	1510232.559017188756	1
0	89465	1510340.066307022715	0
0	89478	1510392.794996378393	1
0	89479	1510427.52106470085	0
0	89513	1510921.274859470432	1
0	89514	1510930.82463692537	0
0	89527	1511184.573244401409	1
0	89528	1511197.417739327179	0
0	89534	1511215.737592414807	1
0	89535	1511240.174899139526	0
0	89555	1511605.382975352961	1
0	89556	1511639.992249061683	0
0	89562	1511831.197545293765	1
0	89563	1511841.854945200626	0
0	89576	1512321.125431612255	1
0	89577	1512338.228758384771	0
0	89583	1512346.017664639989	1
0	89584	1512460.171066419494	0
0	89633	1513595.667393107975	1
0	89636	1513632.350579813083	2
0	89638	1513683.405233186176	3
0	89640	1514318.47687311669	4
0	89642	1514386.074826316653	5
0	89644	1514389.756931040649	6
0	89646	1514472.533663108314	7
0	89647	1514642.790069669981	6
0	89652	1514751.824017301237	5
0	89657	1514783.783031747373	4
0	89663	1514799.223814518856	5
0	89664	1514815.785110675141	4
0	89670	1514831.503134824244	5
0	89672	1514833.531700241344	6
0	89673	1514854.858557100154	5
0	89678	1514887.502031553965	4
0	89683	1514967.166290737038	3
0	89688	1514981.406128419697	2
0	89693	1515014.548644525616	1
0	89698	1515045.6692789409	0
0	89704	1515053.336023477527	1
0	89705	1515059.712515422683	0
0	89711	1515068.526479055458	1
0	89712	1515091.73845274591	0
0	89726	1515420.750618732791	1
0	89728	1515447.299245954974	2
0	89730	1515449.331288063716	3
0	89731	1515456.533176525364	2
0	89737	1515670.227134687737	3
0	89739	1515739.014781828725	4
0	89741	1515806.40198845384	5
0	89743	1515959.413707291872	6
0	89745	1516042.216063422588	7
0	89746	1516119.914186330059	6
0	89752	1516185.659925043272	7
0	89754	1516268.782999187395	8
0	89755	1516327.254141372667	7
0	89760	1516353.604096684228	6
0	89765	1516366.101049672791	5
0	89770	1516377.081558239299	6
0	89771	1516539.94088202326	5
0	89776	1516781.241495845562	6
0	89778	1517050.032493657072	7
0	89780	1517228.671127591279	8
0	89781	1517276.253575757155	7
0	89787	1517396.772910992585	8
0	89789	1517432.129439894556	9
0	89791	1517494.815110755728	10
0	89793	1517542.371558028084	11
0	89796	1517634.266660248143	12
0	89798	1517635.212227408469	13
0	89800	1517650.772653714578	14
0	89801	1517670.223006551741	13
0	89806	1517716.926702402849	12
0	89813	1517741.687111428	13
0	89814	1517829.19190684487	12
0	89820	1517832.395525725141	13
0	89822	1517896.781994316868	14
0	89824	1517908.602345879072	15
0	89825	1518153.754002927062	14
0	89831	1518380.472717218881	15
0	89833	1518457.90064934931	16
0	89835	1518489.02805839419	17
0	89837	1518513.616572128863	18
0	89839	1518725.096230847279	19
0	89841	1518820.214528845522	20
0	89842	1518948.042096107091	19
0	89847	1519017.83601905106	20
0	89849	1519050.150052391975	21
0	89851	1519069.788114512872	22
0	89852	1519076.910945161437	21
0	89856	1519089.989723061086	20
0	89862	1519096.215306446509	21
0	89863	1519256.086418909406	20
0	89868	1519474.28906302216	21
0	89869	1519513.242120925777	20
0	89875	1519669.232683636726	21
0	89876	1519678.990815934016	20
0	89882	1519721.030641410749	21
0	89884	1519729.673128223232	22
0	89885	1519745.363821513905	21
0	89891	1519788.193380055915	22
0	89893	1519919.143681835888	23
0	89895	1519924.761840692455	24
0	89897	1519991.911655331891	25
0	89898	1520019.13982694049	24
0	89904	1520132.710177285353	25
0	89905	1520161.241176922925	24
0	89911	1520377.818434884709	23
0	89916	1520390.82984000909	22
0	89921	1520391.659567213659	21
0	89927	1520424.106811414195	22
0	89928	1520425.493821986937	21
0	89934	1520432.116625151098	22
0	89936	1520549.256931971886	23
0	89937	1520571.829981566992	22
0	89943	1520573.52093533122	23
0	89945	1520630.822210384292	24
0	89946	1520670.692401837247	23
0	89952	1520748.432482345029	24
0	89953	1520793.871030401515	23
0	89958	1520847.371733880523	22
0	89964	1520984.573432322361	23
0	89967	1521030.970895034948	24
0	89968	1521031.545219405787	23
0	89973	1521052.033389167034	22
0	89978	1521119.373972247908	21
0	89984	1521147.030632442331	22
0	89985	1521169.333522060873	21
0	89990	1521245.233974798568	20
0	89995	1521275.215167021146	19
0	90000	1521322.323808469277	18
0	90005	1521399.160139401355	17
0	90011	1521435.90918275179	18
0	90012	1521442.436690073644	17
0	90018	1521488.912355424408	18
0	90019	1521497.310815741314	17
0	90024	1521512.721283486634	16
0	90030	1521578.866928711988	17
0	90031	1521588.340327737365	16
0	90036	1521635.272144915349	15
0	90041	1521717.586149174526	14
0	90047	1521755.974385386715	15
0	90048	1521955.541834220705	14
0	90053	1521970.071378394084	13
0	90059	1521995.920703110367	12
0	90065	1522021.47174663738	13
0	90067	1522027.147420996779	14
0	90069	1522027.66918800714	15
0	90071	1522069.103424027879	16
0	90073	1522183.640239810485	17
0	90074	1522348.35600180696	16
0	90078	1522385.791118965414	15
0	90084	1522675.978223160023	16
0	90085	1522681.162446327153	15
0	90090	1522703.533929145364	14
0	90096	1522760.46676194548	15
0	90098	1522805.743150357949	16
0	90100	1522811.563351625859	17
0	90102	1522952.603507956055	18
0	90103	1522959.804727404418	17
0	90109	1523020.338970040407	18
0	90110	1523124.912968747033	17
0	90116	1523188.901679212975	18
0	90118	1523406.935101429412	19
0	90120	1523420.826416614637	20
0	90121	1523540.718551107875	19
0	90126	1523590.066472063436	18
0	90132	1523658.965882441327	19
0	90133	1523709.685759793314	18
0	90139	1523731.885701321598	19
0	90140	1523953.937410114763	18
0	90146	1524036.137212504135	19
0	90148	1524048.624731090557	20
0	90149	1524161.521823416339	19
0	90153	1524193.562131515834	18
0	90157	1524226.21279778052	17
0	90162	1524348.20430773079	18
0	90165	1524450.997327740892	19
0	90166	1524465.308990721957	18
0	90172	1524470.136219410803	19
0	90173	1524534.934005888186	18
0	90178	1524633.007196439129	17
0	90183	1524697.375008298374	16
0	90188	1524701.758099569645	15
0	90193	1524722.873295147757	14
0	90198	1524746.738308635259	13
0	90202	1524748.728875007749	14
0	90205	1524771.730002822247	13
0	90211	1524780.129954581519	14
0	90212	1524789.752479722427	13
0	90217	1524791.311828559553	12
0	90222	1524830.287121960791	11
0	90228	1524834.455753265474	12
0	90229	1524838.276613677118	11
0	90234	1524894.783667747428	10
0	90239	1524945.085376519304	9
0	90245	1524974.867134269411	10
0	90248	1524999.763263024026	11
0	90249	1525010.537118023344	10
0	90255	1525017.525452806175	11
0	90257	1525088.339094822464	12
0	90259	1525105.648306157039	13
0	90261	1525203.562993323358	14
0	90262	1525298.64666171284	13
0	90267	1525360.928212922636	12
0	90273	1525364.997310599262	13
0	90276	1525511.736647193464	14
0	90278	1525518.21176440266	15
0	90280	1525629.823796307696	16
0	90282	1525657.851024603666	17
0	90285	1525983.727649958754	18
0	90287	1526104.739557647232	19
0	90289	1526152.056734676993	20
0	90291	1526163.261710425337	21
0	90294	1526391.556279560587	22
0	90296	1526404.056005716365	23
0	90299	1526556.951559472767	24
0	90301	1526680.827472536875	23
0	90307	1526698.10414596745	24
0	90308	1526706.487354050586	23
0	90313	1526730.572860928552	22
0	90318	1526735.718199799424	21
0	90323	1526745.46388884083	20
0	90327	1526746.44649116124	21
0	90330	1526799.663607068649	20
0	90333	1526799.908948269248	19
0	90340	1526812.318818745245	18
0	90346	1526813.660660173465	19
0	90348	1526822.728402347298	20
0	90349	1526824.454720642609	19
0	90354	1526906.680798446055	18
0	90359	1526929.111349300436	17
0	90365	1526949.225159274792	18
0	90366	1526994.058106949982	17
0	90371	1527074.81812904347	16
0	90377	1527127.989302662971	17
0	90378	1527144.786084737312	16
0	90383	1527153.153848446464	15
0	90388	1527158.95534016935	14
0	90393	1527243.793710329286	13
0	90398	1527288.862229545642	12
0	90403	1527299.787884844878	11
0	90409	1527333.573524393491	12
0	90410	1527358.992520128662	11
0	90415	1527369.363758944384	10
0	90420	1527443.149423987493	9
0	90423	1527443.387622356657	8
0	90430	1527469.297512059026	7
0	90435	1527514.132411401381	6
0	90440	1527536.323190584898	5
0	90445	1527618.206007116184	4
0	90450	1527629.952766917869	3
0	90456	1527693.846471736969	4
0	90458	1527700.795129533619	5
0	90460	1527871.019673080167	6
0	90461	1527896.017879091231	5
0	90466	1528030.071978613177	4
0	90471	1528062.030537059438	3
0	90476	1528068.591232408879	2
0	90481	1528080.539023201076	1
0	90486	1528171.93578825006	0
0	90499	1528341.220626482909	1
0	90500	1528497.227352756446	0
0	90520	1528734.366887849824	1
0	90522	1528760.016724970813	2
0	90524	1528761.037573306065	3
0	90525	1528769.339394713886	2
0	90530	1528769.525320994443	1
0	90535	1528790.101593534474	0
0	90555	1528963.450794111003	1
0	90556	1528975.435051564343	0
0	90590	1529691.475207896731	1
0	90592	1529726.727808592157	2
0	90594	1529727.207594972988	3
0	90596	1529762.730253355622	4
0	90598	1529763.646529045964	5
0	90599	1529807.539614055089	4
0	90604	1529834.278314959657	3
0	90609	1529866.318757519478	2
0	90614	1529942.399902074236	1
0	90619	1529978.45807437805	0
0	90633	1530303.861767508968	1
0	90635	1530349.462814424539	2
0	90637	1530357.116284380894	3
0	90639	1530560.462959109054	4
0	90641	1530615.050961280064	5
0	90643	1530707.029474969679	6
0	90645	1530741.023894630672	7
0	90646	1530794.825746246805	6
0	90651	1531021.094670742404	7
0	90653	1531120.150708452231	8
0	90655	1531175.350543011884	9
0	90657	1531180.064457110897	10
0	90659	1531182.198005330547	11
0	90661	1531466.476458874291	12
0	90662	1531476.832218265196	11
0	90667	1531500.688206664354	10
0	90673	1531634.911446643197	11
0	90675	1531719.56377751771	12
0	90677	1531791.812307310658	13
0	90679	1531889.202122262216	14
0	90681	1531893.395034110656	15
0	90683	1531914.916408411413	16
0	90684	1531952.778569095442	15
0	90687	1531962.363280744111	16
0	90690	1532015.082104632582	15
0	90695	1532095.335203961943	14
0	90699	1532136.264008759704	13
0	90705	1532153.237889969543	14
0	90706	1532204.915015204874	13
0	90712	1532211.953530875795	14
0	90714	1532247.911763136638	15
0	90715	1532261.475068281758	14
0	90721	1532394.154851906608	15
0	90724	1532633.50422627783	16
0	90726	1532754.89404446598	17
0	90728	1532919.028762877736	18
0	90730	1533003.61990539516	19
0	90733	1533035.584534186997	18
0	90741	1533203.604231285511	19
0	90743	1533207.835026656145	20
0	90745	1533266.4897444881	21
0	90746	1533274.888979913089	20
0	90752	1533296.709432657033	21
0	90753	1533341.982505748474	20
0	90759	1533355.137917896768	21
0	90760	1533444.979679170674	20
0	90765	1533471.815155118881	19
0	90770	1533494.105603939849	18
0	90775	1533532.708828401996	17
0	90780	1533564.487530080779	16
0	90785	1533614.112916289842	15
0	90790	1533621.351348633401	14
0	90795	1533635.030894176665	13
0	90801	1533650.507200448527	14
0	90802	1533653.362151041926	13
0	90807	1533659.880847266126	12
0	90812	1533708.058127064383	11
0	90817	1533787.888779149604	10
0	90823	1533789.350415510983	11
0	90825	1533846.313416377478	12
0	90827	1533876.870741668332	13
0	90828	1533887.095733841239	12
0	90833	1533958.986216691543	11
0	90839	1533969.363671310018	12
0	90841	1534032.173687694352	13
0	90842	1534044.008802790845	12
0	90847	1534065.865892470503	11
0	90853	1534076.235771879141	12
0	90854	1534084.353593332531	11
0	90859	1534093.859109435166	10
0	90864	1534140.415726378531	9
0	90869	1534157.382115273986	8
0	90874	1534161.506268365598	7
0	90880	1534165.187742612943	8
0	90881	1534233.525644640038	7
0	90887	1534240.192310683432	8
0	90889	1534260.056050829164	9
0	90891	1534329.024182199407	10
0	90893	1534330.900701740387	11
0	90894	1534341.002104457283	10
0	90900	1534419.28178060895	11
0	90901	1534488.086028015706	10
0	90906	1534547.493342746538	9
0	90912	1534604.208319568954	10
0	90914	1534607.760456452534	11
0	90916	1534632.967641195542	12
0	90917	1534689.885681720343	11
0	90922	1534713.418807757197	10
0	90925	1534715.532100002309	9
0	90932	1534731.05786401776	8
0	90937	1534749.173119017147	7
0	90942	1534769.277960072692	6
0	90947	1534854.147128186047	5
0	90952	1534887.772105874943	4
0	90957	1534889.039091537531	3
0	90963	1534933.23190962243	4
0	90964	1534966.48706685963	3
0	90969	1535048.826606877559	2
0	90974	1535058.799792947392	1
0	90979	1535114.679358836289	0
0	90999	1535273.171100348341	1
0	91000	1535286.921297005877	0
0	91048	1535918.741498636789	1
0	91050	1535950.5620902943	2
0	91051	1535981.830545509511	1
0	91056	1536128.344261740018	0
0	91083	1536518.581330490094	1
0	91085	1536559.470544256156	0
0	91091	1536632.292880301064	1
0	91092	1536641.582513666608	0
0	91105	1536794.568619083771	1
0	91107	1536875.679604907694	2
0	91109	1536887.231185735036	3
0	91111	1536956.725000939831	4
0	91112	1537014.90556557827	3
0	91118	1537117.491054513908	4
0	91120	1537120.971211831804	5
0	91122	1537274.829901277003	6
0	91124	1537304.949595652043	7
0	91126	1537358.88009884258	8
0	91128	1537376.384189045712	9
0	91130	1537460.731984731544	10
0	91131	1537474.456634345918	9
0	91136	1537496.489049402223	8
0	91141	1537507.481267928697	7
0	91147	1537544.767270935834	8
0	91149	1537645.354579043988	9
0	91150	1537740.67222637174	8
0	91155	1537926.112751465097	9
0	91157	1537927.406007863505	10
0	91159	1538159.977745793359	11
0	91161	1538217.450223132839	12
0	91163	1538279.346905257832	13
0	91165	1538289.863796603903	14
0	91167	1538468.086577407007	15
0	91168	1538476.038587967806	14
0	91172	1538504.989402058559	13
0	91178	1538512.738692541049	14
0	91179	1538693.398019824658	13
0	91184	1538740.169126004214	12
0	91189	1538796.588387192202	11
0	91194	1539056.08782906609	10
0	91200	1539218.306419882048	11
0	91202	1539283.158325790295	12
0	91204	1539294.619622727798	13
0	91206	1539414.467352037367	14
0	91207	1539818.214717122986	13
0	91211	1539862.686261394223	12
0	91216	1540079.767049154207	13
0	91218	1540209.51980219655	14
0	91220	1540311.354659872827	15
0	91222	1540565.902158143164	16
0	91224	1540717.507675117302	17
0	91226	1540960.31172184824	18
0	91228	1540982.609687308303	19
0	91229	1541073.346253398762	18
0	91234	1541102.749508626456	19
0	91236	1541153.846126433023	20
0	91237	1541156.543262056175	19
0	91242	1541175.088070726924	20
0	91244	1541234.404191233992	21
0	91246	1541265.655130042835	22
0	91248	1541517.868169308589	23
0	91249	1541662.765814911539	22
0	91254	1541691.526722765321	23
0	91256	1541778.45191103017	24
0	91258	1541909.854004151542	25
0	91260	1541917.50522230776	26
0	91262	1541922.060801106123	27
0	91263	1542099.47018123629	26
0	91268	1542277.224656516734	27
0	91269	1542400.404209332615	26
0	91275	1542425.454308234044	27
0	91277	1542519.479592802832	28
0	91278	1542662.611177233431	27
0	91284	1542738.543881068812	28
0	91286	1542795.954112742006	29
0	91287	1542838.980373565973	28
0	91291	1542878.600934147701	27
0	91296	1542946.447485029036	28
0	91297	1542993.907890448586	27
0	91304	1543211.958647231776	28
0	91306	1543262.762163770806	29
0	91307	1543344.885507317992	28
0	91313	1543350.927288547847	29
0	91314	1543370.844207457045	28
0	91319	1543406.679276920019	27
0	91325	1543503.876765669949	28
0	91326	1543519.696720836289	27
0	91332	1543527.605341732561	28
0	91333	1543533.881764997565	27
0	91339	1543546.9592649071	28
0	91340	1543553.340395804809	27
0	91346	1543705.207621935557	26
0	91351	1543713.598650315324	25
0	91357	1543715.117224327448	26
0	91358	1543738.806153692277	25
0	91363	1543744.117553963543	24
0	91368	1543756.540965421223	23
0	91373	1543944.558329148006	22
0	91378	1544080.460221550176	21
0	91383	1544081.698583890533	20
0	91388	1544134.146558181107	19
0	91394	1544149.655421032574	20
0	91395	1544179.082708385277	19
0	91400	1544216.665428035894	18
0	91405	1544272.912248751163	17
0	91410	1544315.053868442599	16
0	91415	1544319.748314576428	15
0	91421	1544370.396158359471	16
0	91422	1544429.941682766876	15
0	91427	1544452.245621183726	14
0	91432	1544473.883195966245	13
0	91437	1544559.916348117284	12
0	91440	1544560.306357683239	11
0	91448	1544588.549476552325	12
0	91449	1544605.210549539461	11
0	91454	1544641.59125349487	10
0	91459	1544659.584287386251	9
0	91464	1544685.814263258354	8
0	91470	1544711.707994962193	9
0	91472	1544805.930154722368	10
0	91474	1544806.316274996531	11
0	91475	1544877.506935901086	10
0	91481	1544932.255288693708	11
0	91482	1544955.17636423869	10
0	91488	1545028.901748482814	11
0	91490	1545053.199117644706	12
0	91491	1545144.120021079811	11
0	91496	1545167.027623666428	10
0	91501	1545214.989571464643	9
0	91506	1545233.325182606909	8
0	91512	1545235.198636946012	9
0	91514	1545244.408468119661	10
0	91515	1545274.403897757078	9
0	91520	1545278.466797802652	8
0	91526	1545293.405375342659	9
0	91527	1545295.406149894525	8
0	91532	1545299.679788079861	7
0	91537	1545347.357235132996	6
0	91542	1545367.681036690125	5
0	91547	1545376.486126368604	4
0	91553	1545379.45387516808	5
0	91554	1545396.675721826265	4
0	91560	1545401.507409674984	5
0	91561	1545403.479969698656	4
0	91566	1545410.603348822207	3
0	91571	1545512.933169517505	2
0	91576	1545538.740025760244	1
0	91582	1545581.759440052184	2
0	91584	1545590.222635703213	3
0	91586	1545592.693759401615	4
0	91587	1545665.560072748713	3
0	91593	1545671.030222067342	4
0	91594	1545725.531678349468	3
0	91600	1545728.65277488878	4
0	91602	1545729.848933899772	5
0	91603	1545778.746573592938	4
0	91610	1545817.692092535182	5
0	91612	1545866.955235117724	4
0	91617	1545891.787470146276	3
0	91623	1545912.224744610661	4
0	91624	1545935.786266369945	3
0	91629	1545973.007271342088	2
0	91635	1545977.594114486174	3
0	91637	1545990.594420934937	4
0	91638	1546016.697396410284	3
0	91643	1546032.593298201439	2
0	91648	1546052.336767679562	1
0	91654	1546077.247157294836	2
0	91655	1546157.228684557581	1
0	91660	1546163.44374903043	0
0	91666	1546215.252109292439	1
0	91667	1546220.299209829895	0
0	91701	1546500.17819206342	1
0	91702	1546577.067152323454	0
0	91813	1548477.248905974638	1
0	91815	1548494.640854179872	2
0	91816	1548571.144252133377	1
0	91822	1548595.91172927542	2
0	91823	1548596.522522615176	1
0	91826	1548597.007672813574	0
0	91848	1548928.554251563685	1
0	91849	1548943.386524179312	0
0	91855	1548946.606395344598	1
0	91857	1548949.745088359664	2
0	91858	1548982.098720130396	1
0	91863	1549076.746691841166	0
0	91897	1549669.6830268123	1
0	91898	1549670.717193614581	0
0	91911	1549723.389683468168	1
0	91912	1549735.92963950411	0
0	91953	1550836.211197346709	1
0	91954	1550876.201944137698	0
0	91960	1550890.811681690613	1
0	91962	1550891.772662081375	2
0	91964	1550892.832149697319	3
0	91966	1550936.734870869932	4
0	91967	1550961.218056825007	3
0	91973	1550970.589421386456	4
0	91974	1551027.908137477772	3
0	91979	1551088.30965481906	2
0	91985	1551148.811365578952	3
0	91986	1551151.213270812202	2
0	91991	1551154.541457282018	1
0	91996	1551168.128295463203	0
0	92023	1551624.366472368586	1
0	92024	1551644.949415445188	0
0	92072	1552491.319287606082	1
0	92073	1552494.973948672511	0
0	92086	1552752.45550656006	1
0	92087	1552819.38475654838	0
0	92121	1553580.281968711801	1
0	92122	1553597.770864385463	0
0	92128	1553604.191885688417	1
0	92130	1553607.260520447083	2
0	92131	1553663.753309015848	1
0	92137	1553799.456643065695	0
0	92150	1553895.211290690844	1
0	92152	1554064.708304664653	2
0	92154	1554142.211945634709	3
0	92156	1554168.223554318326	4
0	92157	1554212.713567480569	3
0	92162	1554280.964458601792	2
0	92167	1554298.859145840507	3
0	92169	1554468.957667571511	4
0	92170	1554523.889697681141	3
0	92177	1554801.400427890079	4
0	92179	1554840.164998273341	5
0	92180	1554863.891712040385	4
0	92186	1554867.281778797334	5
0	92188	1554899.144655865126	6
0	92190	1554901.836488662607	7
0	92191	1554908.374158865093	6
0	92196	1554935.337666468327	5
0	92201	1554959.173113227904	4
0	92206	1554976.865376127112	3
0	92211	1554980.384869662452	2
0	92216	1554986.606605317827	1
0	92221	1555007.926807242157	0
0	92234	1555136.945036526033	1
0	92235	1555190.225839952153	0
0	92248	1555309.73076661624	1
0	92249	1555382.227891990973	0
0	92255	1555403.683510395211	1
0	92256	1555490.783746978231	0
0	92290	1556041.933719424987	1
0	92291	1556068.83468376344	0
0	92312	1556483.814335331335	1
0	92314	1556507.45638936933	2
0	92316	1556571.974463808894	3
0	92318	1556703.131815976875	4
0	92320	1556704.64525719838	5
0	92322	1556721.10262715685	6
0	92324	1556756.829598391465	7
0	92326	1556992.947538233688	8
0	92327	1557025.633611146624	7
0	92332	1557039.519032764999	6
0	92339	1557465.547132518075	7
0	92341	1557481.426885203866	8
0	92343	1557501.943663296836	9
0	92345	1557614.677586389203	10
0	92347	1557639.434962224417	11
0	92348	1557675.368531040464	10
0	92353	1557684.295542701428	9
0	92358	1557691.421873410305	8
0	92363	1557697.29116573342	7
0	92368	1557731.824186979957	6
0	92373	1557794.92735149929	5
0	92378	1557826.723616277297	4
0	92384	1557828.509763795099	5
0	92385	1557830.173653271063	4
0	92390	1557864.414944554118	3
0	92395	1557897.282599228078	2
0	92400	1557922.168786592415	1
0	92405	1557925.721202280702	0
0	92453	1558645.52248205511	1
0	92455	1558671.284288518263	2
0	92456	1558730.721971092784	1
0	92461	1558809.320200089127	0
0	92488	1559240.663688849479	1
0	92490	1559241.906222339483	2
0	92491	1559309.275775079251	1
0	92496	1559318.003212366027	0
0	92537	1560158.486096646054	1
0	92539	1560210.819484474142	2
0	92540	1560213.78047381916	1
0	92545	1560264.7001348952	0
0	92565	1560790.420729723064	1
0	92566	1560805.309830878807	0
0	92586	1561020.408307262527	1
0	92587	1561037.88799880454	0
0	92593	1561051.779749948604	1
0	92594	1561058.234327183449	0
0	92600	1561073.570329399774	1
0	92601	1561089.843262766954	0
0	92621	1561346.965589245076	1
0	92622	1561357.815170867106	0
0	92698	1562924.190935227436	1
0	92699	1562987.820754597544	0
0	92705	1562996.483597247142	1
0	92706	1563017.300530892662	0
0	92753	1564078.973310437887	1
0	92754	1564123.58298223734	0
0	92759	1564287.594828596708	1
0	92761	1564376.212011514598	2
0	92763	1564510.70136910165	3
0	92765	1564542.183237892117	4
0	92767	1564663.581122549821	5
0	92769	1564836.186614489604	6
0	92771	1564923.951296029148	7
0	92772	1565136.559290575599	6
0	92777	1565151.721586087061	7
0	92779	1565237.505152718758	8
0	92781	1565261.911846484285	9
0	92783	1565298.41368238714	10
0	92785	1565335.642917319397	11
0	92787	1565550.790844202928	12
0	92789	1565580.667304695355	13
0	92791	1565709.043003788871	14
0	92792	1565725.878993816673	13
0	92796	1565903.780818114104	12
0	92801	1566069.346739452035	11
0	92807	1566190.953317172854	12
0	92809	1566196.467751755527	13
0	92810	1566227.200838054312	12
0	92815	1566264.806829712214	13
0	92817	1566362.642333060595	14
0	92818	1566474.190925813469	13
0	92822	1566497.688756307066	12
0	92828	1566532.919467901418	13
0	92830	1566625.773858185901	14
0	92832	1566629.31773189991	15
0	92834	1566636.074840723693	16
0	92836	1566697.874832223768	17
0	92838	1566874.639465812825	18
0	92839	1566971.680685787029	17
0	92844	1567021.182225460754	16
0	92848	1567152.875551083995	15
0	92853	1567169.315067883826	16
0	92855	1567286.256379567482	17
0	92857	1567397.851195401713	18
0	92858	1567450.285433813287	17
0	92864	1567453.394067278099	18
0	92866	1567479.566614917082	19
0	92868	1567563.709159571337	20
0	92870	1567678.102917849283	21
0	92872	1567678.443457250229	22
0	92874	1567713.930496740387	23
0	92875	1567772.599672201775	22
0	92881	1567779.458417068037	23
0	92883	1567934.767885545589	24
0	92885	1567999.909624539396	25
0	92886	1568070.192827953497	24
0	92890	1568080.682511514526	23
0	92895	1568096.443073903354	24
0	92899	1568258.058665465969	25
0	92901	1568362.155552389122	26
0	92904	1568621.959083023271	27
0	92907	1568798.864201523741	28
0	92909	1569239.692833891027	29
0	92911	1569267.763316581291	30
0	92915	1569512.306373406358	31
0	92917	1569655.678391814088	32
0	92920	1569944.353427342506	33
0	92922	1569960.478674252421	34
0	92924	1570230.383774376253	35
0	92927	1570459.931010316799	34
0	92933	1570652.488457973319	35
0	92935	1570703.91992001344	36
0	92936	1570705.110639569246	35
0	92940	1570734.386981901803	34
0	92946	1570780.519334480836	35
0	92947	1570803.76840921538	34
0	92952	1570917.658679109286	35
0	92954	1570982.794599816497	36
0	92955	1570992.646025078998	35
0	92961	1571112.617388577358	36
0	92962	1571147.236239404205	35
0	92967	1571181.729734460078	34
0	92973	1571278.32524493473	35
0	92974	1571439.081246748258	34
0	92980	1571544.221971260697	35
0	92983	1571576.722624497643	36
0	92985	1571672.342265245815	37
0	92988	1571768.841091054978	38
0	92991	1571877.160955104722	39
0	92993	1571999.255985597602	40
0	92996	1572138.677658652189	41
0	92998	1572534.366695161574	42
0	93000	1572548.933518381854	43
0	93002	1572607.287332280321	44
0	93004	1572622.042270580638	45
0	93006	1572652.790698164975	46
0	93007	1572795.226936694607	45
0	93012	1572822.634003325158	46
0	93014	1572968.893642698366	47
0	93015	1573015.820362422553	46
0	93021	1573092.937217573983	47
0	93022	1573204.2978007167	46
0	93027	1573238.606245561138	47
0	93028	1573286.764294966597	46
0	93033	1573325.727467240882	45
0	93038	1573334.268820963988	46
0	93040	1573422.605635581242	47
0	93042	1573450.775884477471	48
0	93044	1573463.668593071792	49
0	93046	1573570.71864628861	48
0	93051	1573608.266346583906	47
0	93056	1573612.191052113422	46
0	93061	1573625.859800954427	45
0	93066	1573631.479285444247	44
0	93071	1573667.570227767504	43
0	93076	1573728.478990754511	42
0	93081	1573816.710828192478	41
0	93086	1573842.147332236217	40
0	93092	1573875.897323115373	41
0	93093	1573897.665092942513	40
0	93098	1573900.403329334146	39