version 2
run Simulations-41-20191218-11:09:20-65753
attr configname Simulations
attr datetime 20191218-11:09:20
attr experiment Simulations
attr inifile omnetpp.ini
attr iterationvars "$seed=25, $0=8400"
attr iterationvarsf seed=25,8400-
attr measurement "$seed=25, $0=8400"
attr network WifiCelNetPassiveQueue
attr processid 65753
attr repetition 0
attr replication #0
attr resultdir results/Simulations/omnet
attr runnumber 41
attr seedset 25
itervar seed 25
param **.numJobs 10000
param *.OFFLOAD.deadline exponential(8400s)
param *.source.interArrivalTime exponential(120s)
param *.WIFI.serviceTime exponential(40s)
param *.CELL.serviceTime exponential(400s)
param *.OFFLOAD.switchToWi exponential(1524s)
param *.OFFLOAD.switchToCel exponential(3120s)
param *.LOCAL.serviceTime exponential(5s)
param *.REMOTE.serviceTime exponential(1s)

vector 0 WifiCelNetPassiveQueue.WIFI serviceTime:vector ETV
attr interpolationmode none
attr title "wifi Service, vector"
attr unit s
vector 1 WifiCelNetPassiveQueue.WIFI responseTime:vector ETV
attr interpolationmode none
attr title "Response Time, vector"
attr unit s
vector 2 WifiCelNetPassiveQueue.REMOTE serviceTime:vector ETV
attr interpolationmode none
attr title "wifi Service, vector"
attr unit s
vector 3 WifiCelNetPassiveQueue.REMOTE responseTime:vector ETV
attr interpolationmode none
attr title "Response Time, vector"
attr unit s
vector 4 WifiCelNetPassiveQueue.sink lifeTime:vector ETV
attr interpolationmode none
attr title "lifetime of arrived jobs, vector"
attr unit s
vector 5 WifiCelNetPassiveQueue.OFFLOAD queueLength:vector ETV
attr interpolationmode sample-hold
attr title "queue length, vector"
vector 6 WifiCelNetPassiveQueue.OFFLOAD storeCelTime:vector ETV
attr interpolationmode none
attr title "Time in Cell, vector"
attr unit s
vector 7 WifiCelNetPassiveQueue.OFFLOAD storeDeadline:vector ETV
attr interpolationmode none
attr title "deadline, vector"
attr unit s
vector 8 WifiCelNetPassiveQueue.CELL serviceTime:vector ETV
attr interpolationmode none
attr title "wifi Service, vector"
attr unit s
vector 9 WifiCelNetPassiveQueue.CELL responseTime:vector ETV
attr interpolationmode none
attr title "Response Time, vector"
attr unit s
vector 10 WifiCelNetPassiveQueue.LOCAL serviceTime:vector ETV
attr interpolationmode none
attr title "wifi Service, vector"
attr unit s
vector 11 WifiCelNetPassiveQueue.LOCAL responseTime:vector ETV
attr interpolationmode none
attr title "Response Time, vector"
attr unit s
vector 12 WifiCelNetPassiveQueue.OFFLOAD storeWifiTime:vector ETV
attr interpolationmode none
attr title "Time in Wifi, vector"
attr unit s
vector 13 WifiCelNetPassiveQueue.REMOTE queueLength:vector ETV
attr interpolationmode sample-hold
attr title "queue length, vector"
0	174691	3000212.164368991449	2.430441098304
0	174698	3000263.11307172287	7.841354554296
0	174705	3000753.250175617204	38.1192925175
0	174712	3001473.797300577255	9.426429147118
0	174719	3001658.215619570879	15.661060961389
0	174726	3001832.908294371845	31.717285901298
0	174733	3001971.041830443212	13.235669769221
0	174740	3002005.211045376001	21.209769982361
0	174747	3002469.720697430236	67.485411596054
0	174754	3002745.307147951262	32.233811772753
0	174761	3002833.770162411505	19.440389088148
0	174768	3002855.034119273073	16.878746045751
0	174775	3003264.750427785621	0.935848108896
0	174782	3003406.596326152926	10.826597528924
0	174789	3003506.809482525626	6.955699909733
0	174800	3003614.283703237014	89.984510547983
0	174805	3003694.63406157005	80.350358333036
0	174810	3003695.316967515203	0.682905945153
0	174819	3003815.901591834881	101.40178251753
0	174824	3003831.155388898331	15.25379706345
0	174833	3003953.420504253438	25.481896075376
0	174838	3003981.014981812035	27.594477558597
0	174845	3004077.536914330438	48.195185710821
0	174852	3004244.886751622898	1.240700178847
0	174859	3004292.32205426239	44.773029473661
0	174868	3004389.980611803855	87.214287019539
0	174873	3004393.552264739234	3.571652935379
0	174880	3004483.273190067369	9.061093953143
0	174887	3004534.130723702718	15.168954191408
0	174894	3004625.385838033498	90.265569519092
0	174901	3004685.435466027329	46.33988254401
0	174908	3004796.591172312502	38.902391566662
0	174915	3004876.534169363754	26.058029591321
0	174922	3005016.636906702313	13.440272813138
0	174929	3005034.45855711221	8.509587301772
0	174936	3005106.243920610231	15.932672228997
0	174943	3005324.1710781895	40.610852415462
0	174950	3005332.775657874655	1.214838244488
0	174957	3005446.07717447135	16.450794080831
0	174964	3005532.397325198493	13.492412270874
0	174975	3005729.587037958442	39.869188976103
0	174980	3005765.570171822008	35.983133863566
0	174985	3005833.301949155521	67.731777333513
0	174992	3006004.952773406507	17.524723346608
0	174999	3006142.778265995362	36.10631665786
0	175006	3006182.738607666539	3.548178167745
0	175071	3008383.237371401088	22.335495148924
0	175076	3008393.797252714409	10.559881313321
0	175081	3008418.716459000348	24.919206285939
0	175090	3008500.146428410847	81.429969410499
0	175101	3008559.801837058651	59.655408647804
0	175106	3008566.056405213789	6.254568155138
0	175113	3008622.220203129048	56.163797915259
0	175118	3008623.548412914026	1.328209784978
0	175121	3008623.718746308787	0.170333394761
0	175130	3008702.360942930842	78.642196622055
0	175135	3008706.048352075312	3.68740914447
0	175140	3008726.223239257462	20.17488718215
0	175147	3008801.891505037781	75.668265780319
0	175205	3009591.749175082069	20.002869145233
0	175210	3009634.73627167694	42.987096594871
0	175221	3009789.22204673511	154.48577505817
0	175226	3009832.63106815717	43.40902142206
0	175231	3009858.768791090537	26.137722933367
0	175236	3009881.422099651773	22.653308561236
0	175241	3009884.621751365735	3.199651713962
0	175246	3009932.533408657755	47.91165729202
0	175251	3010035.590676610504	103.05726795275
0	175256	3010056.565800127299	20.975123516795
0	175261	3010116.06654123079	59.500741103491
0	175450	3016478.23878640405	76.78297379032
0	175455	3016507.486361228021	29.247574823971
0	175460	3016516.434965129867	8.948603901846
0	175465	3016587.938028352703	71.503063222836
0	175474	3016646.585204765829	58.647176413126
0	175479	3016673.802437473884	27.217232708055
0	175486	3016728.395418777628	54.592981303744
0	175491	3016776.498782024332	48.103363246704
0	175496	3016796.661121286686	20.162339262354
0	175501	3016806.977547801696	10.31642651501
0	175510	3016869.83492837123	62.857380569534
0	175513	3016871.203705450123	1.368777078893
0	175524	3017033.669264806062	162.46555935594
0	175529	3017055.448710853407	21.779446047345
0	175534	3017073.520080267724	18.071369414317
0	175539	3017078.762393586843	5.242313319119
0	175544	3017082.871637251917	4.109243665074
0	175549	3017091.254027267216	8.382390015299
0	175554	3017107.192088567226	15.93806130001
0	175563	3017256.031809004974	148.83972043775
0	175568	3017399.292764019538	143.26095501456
0	175573	3017412.951389010231	13.658624990693
0	175578	3017418.019163190792	5.067774180561
0	175583	3017456.186511363416	38.167348172624
0	175590	3017482.643509801045	26.456998437629
0	175597	3017564.7614959618	82.117986160755
0	175600	3017566.48405930217	1.72256334037
0	175607	3017569.189194933011	2.705135630841
0	175612	3017571.769503938354	2.580309005343
0	175621	3017672.131784096537	32.429402857293
0	175626	3017681.715372548273	9.583588451736
0	175633	3017831.307783305539	37.797044679384
0	175640	3018093.683808894039	36.230813589086
0	175647	3018212.261618534023	61.279380802843
0	175660	3018649.010223758565	157.42264199577
0	175679	3019417.119245169108	40.673139311789
0	175688	3019465.054198867908	47.9349536988
0	175693	3019475.725497260078	10.67129839217
0	175698	3019582.116188849326	106.39069158925
0	175705	3019651.049660430528	19.702468719831
0	175714	3019910.792200617064	255.97113368031
0	175719	3019968.56095439141	57.768753774346
0	175728	3020145.954792058878	22.551345098119
0	175735	3020180.876278271713	34.921486212835
0	175740	3020238.343533606902	57.467255335189
0	175747	3020497.378201538102	97.374698637833
0	175754	3020544.321067137032	46.256555993769
0	175763	3020569.170003945568	4.73786397867
0	175768	3020658.703541537777	89.533537592209
0	175775	3020843.050125131971	35.33079081728
0	175782	3020954.889397967287	23.165271315583
0	175789	3021122.008935056909	0.31314021758
0	175796	3021132.193155223733	1.071286273504
0	175803	3021229.332008509513	6.070727246149
0	175810	3021321.453812918635	70.334544632464
0	175817	3021576.122352202662	119.67908570645
0	175826	3021769.445106433283	90.106205730709
0	175831	3021785.122757593847	15.677651160564
0	175892	3023546.289204061316	39.656511613264
0	175897	3023560.072075982442	13.782871921126
0	175902	3023619.068268201485	58.996192219043
0	175905	3023619.253629037673	0.185360836188
0	175920	3023698.988664191641	79.735035153968
0	175925	3023704.155324207539	5.166660015898
0	175932	3023779.982071051901	75.826746844362
0	175939	3023994.112626171302	214.1305551194
0	175944	3023997.201966027202	3.0893398559
0	175949	3023998.3594361499	1.157470122698
0	175954	3024008.428268304798	10.068832154898
0	175959	3024013.946881752365	5.518613447567
0	175966	3024047.000023446519	12.151694869659
0	175973	3024066.746371510055	10.372313258303
0	175980	3024192.614936335173	23.389209008286
0	175987	3024289.264387657439	0.015156728165
0	175994	3024356.033771567903	18.83655727269
0	176001	3024697.831085836666	22.911025124336
0	176010	3024828.073105146402	12.809356416014
0	176017	3024911.052085656572	82.97898051017
0	176022	3024951.504501025011	40.452415368439
0	176029	3025122.287342902794	6.198286451915
0	176036	3025174.499113681967	2.478707707635
0	176043	3025225.798961853536	23.875002879085
0	176050	3025588.065149802367	0.99431240098
0	176057	3025846.904244619789	23.89325984311
0	176066	3025997.254173836465	25.549740412971
0	176071	3026081.836323397831	84.582149561366
0	176080	3026192.183194505152	54.989283220169
0	176085	3026257.650393373195	65.467198868043
0	176094	3026348.10341107841	86.515264606848
0	176099	3026355.716010711619	7.612599633209
0	176108	3026460.528285826893	57.779867423382
0	176113	3026504.511622387472	43.983336560579
0	176120	3026638.755596204638	15.51500471003
0	176127	3026674.532498326284	24.622469317425
0	176134	3026852.311408468406	23.826202033848
0	176143	3026994.49402704617	21.156617639181
0	176148	3027056.166084083091	61.672057036921
0	176157	3027695.410076298322	46.940518242418
0	176162	3027733.427458144456	38.017381846134
0	176169	3027787.10954677206	4.642645775696
0	176176	3028153.691629815046	54.008250335792
0	176306	3032105.454912556943	82.017973527981
0	176311	3032110.733929098973	5.27901654203
0	176318	3032130.115914566457	19.381985467484
0	176323	3032139.268857005342	9.152942438885
0	176328	3032166.630292128488	27.361435123146
0	176333	3032179.334146560586	12.703854432098
0	176338	3032199.871790392242	20.537643831656
0	176343	3032251.018673969585	51.146883577343
0	176348	3032264.880765643682	13.862091674097
0	176355	3032380.319302531647	115.43853688797
0	176366	3032419.946801754731	39.627499223084
0	176371	3032476.241583273958	56.294781519227
0	176376	3032485.135128308268	8.89354503431
0	176381	3032525.664153672525	40.529025364257
0	176386	3032528.88628503893	3.222131366405
0	176391	3032545.623451913909	16.737166874979
0	176432	3033708.824727749071	51.56552266344
0	176437	3033810.020597632595	101.19586988352
0	176444	3033925.534157652628	0.179601801825
0	176451	3034018.169074577947	20.69970822136
0	176458	3034078.963769122799	19.974173996525
0	176465	3034133.985329686507	30.346651313699
0	176472	3034166.72136927267	9.172297939871
0	176479	3034224.723405828606	18.159158900149
0	176490	3034364.57508300224	7.198491175598
0	176495	3034473.231514513681	108.65643151144
0	176502	3034599.463698010977	7.193370410472
0	176517	3035054.031031356397	89.484844736137
0	176522	3035086.293328950958	32.262297594561
0	176527	3035124.86307863257	38.569749681612
0	176534	3035223.309151299416	74.769984924074
0	176541	3035260.076222750007	14.942282639605
0	176548	3035629.377099371573	29.327512662863
0	176557	3036112.935283268332	42.567814117267
0	176562	3036153.996954833862	41.06167156553
0	176569	3036299.875371357121	57.164076468324
0	176576	3036352.490739256787	32.671676332603
0	176589	3036631.873696711053	84.708346571593
0	176594	3036704.151478227385	72.277781516332
0	176599	3036711.690609660403	7.539131433018
0	176604	3036717.572836452595	5.882226792192
0	176611	3037004.815496593107	4.010043294938
0	176618	3037125.942985680805	39.27254641738
0	176625	3037449.465218558827	3.030848144862
0	176632	3037619.905714779671	51.455480198272
0	176639	3037666.599450137091	9.309004109321
0	176646	3037791.234904145865	43.153449262544
0	176653	3037796.676346683049	4.53109858787
0	176660	3037889.684037916514	59.23930024325
0	176667	3037967.587790829855	21.340767318666
0	176674	3037975.293249898612	5.941364658785
0	176685	3038088.325743367723	106.3213574714
0	176692	3038099.86307365773	11.537330290007
0	176697	3038110.052489489122	10.189415831392
0	176702	3038127.685366600507	17.632877111385
0	176709	3038140.977301132101	8.69912693308
0	176718	3038247.075313439551	23.268192673696
0	176723	3038261.44666387246	14.371350432909
0	176730	3038332.317440260966	20.619328279641
0	176739	3038750.778239445387	126.39305733796
0	176750	3038805.188082295326	54.409842849939
0	176755	3038846.30067797645	41.112595681124
0	176760	3038849.178382395155	2.877704418705
0	176765	3038863.649561135735	14.47117874058
0	176772	3038999.383385610994	23.553788255307
0	176781	3039225.987057068801	20.244892006376
0	176786	3039259.89737549127	33.910318422469
0	176793	3039295.035194256897	9.535818635404
0	176802	3039357.441747782621	23.922092860013
0	176807	3039404.69054906339	47.248801280769
0	176814	3039864.647553401432	101.44898869867
0	176821	3039968.116263040324	41.999369043267
0	176828	3040016.788188936102	21.638911766937
0	176835	3040258.616519884373	2.303937627495
0	176842	3040437.19596366442	63.869892826118
0	176851	3040762.820345598144	177.80095183914
0	176856	3040771.415911745637	8.595566147493
0	176863	3040882.51179141915	49.31620302245
0	176870	3040980.56188497486	55.807540489296
0	176881	3041145.829222592191	67.486292253212
0	176886	3041173.419978266414	27.590755674223
0	176891	3041183.072371004865	9.652392738451
0	176898	3041220.917444878264	18.399398722366
0	176907	3041266.471796559608	26.67552368629
0	176912	3041269.439757687486	2.967961127878
0	176919	3041340.987353684076	15.001353562074
0	176928	3041779.362515531594	204.95303413265
0	176933	3041833.741786726452	54.379271194858
0	176944	3042056.597297632628	58.241104537495
0	176949	3042130.709224995965	74.111927363337
0	176954	3042144.459128869614	13.749903873649
0	176961	3042207.326141235058	0.35927363132
0	176968	3042283.044123919907	45.064688813176
0	176975	3042327.095660609584	8.41081299952
0	176984	3042355.005382194338	19.367639228923
0	176989	3042370.788056689528	15.78267449519
0	176996	3042400.722423521544	18.407598978796
0	177003	3042494.316081230544	25.277471405153
0	177010	3042513.249274138684	3.979217896658
0	177017	3042703.550361060521	11.744459016849
0	177028	3042776.211476955707	28.234798891952
0	177033	3042799.992341084777	23.78086412907
0	177038	3042814.797974891517	14.80563380674
0	177045	3042900.72429783061	22.874731127126
0	177052	3042950.999668266709	32.756431609522
0	177059	3043040.570879891925	30.164146123629
0	177066	3043170.475375429793	14.764606350949
0	177073	3043224.932003701856	37.210794937782
0	177080	3043283.757436849175	19.697648212641
0	177087	3043392.176441642161	48.254321520923
0	177094	3043668.412251690725	39.581230658193
0	177101	3043722.563281958686	18.19907644091
0	177108	3043801.063780408125	2.865210984687
0	177115	3043863.303524156176	6.953598960586
0	177124	3043888.80578796502	12.616897504233
0	177129	3043919.41676521207	30.61097724705
0	177138	3044027.138096973345	36.547432190282
0	177143	3044044.160826703342	17.022729729997
0	177154	3044380.02636123803	25.038230318538
0	177159	3044415.256021924055	35.229660686025
0	177164	3044426.703090702742	11.447068778687
0	177171	3044504.627886653565	33.285855675872
0	177180	3044656.15843328997	83.568655244986
0	177185	3044732.597861785039	76.439428495069
0	177192	3044852.962546751987	99.23406576232
0	177199	3044930.24426162117	76.559598346175
0	177206	3045208.667714421694	87.246507021332
0	177215	3045464.398372095954	176.22385453769
0	177220	3045508.851803128605	44.453431032651
0	177227	3045627.724101308125	25.116721718172
0	177236	3045704.086798543436	45.509682299332
0	177241	3045772.243526194013	68.156727650577
0	177250	3045860.927637490973	56.466610556966
0	177255	3045871.533326183702	10.605688692729
0	177262	3045965.18563221352	1.835869700378
0	177271	3046104.746686272997	93.834367580148
0	177278	3046168.324949475318	63.578263202321
0	177285	3046220.671610395678	52.34666092036
0	177292	3046263.878590737192	43.206980341514
0	177297	3046270.003749142992	6.1251584058
0	177304	3046542.32202681277	14.700908885692
0	177311	3046606.081307234807	2.09657451868
0	177318	3046780.521992481909	50.826844963405
0	177325	3047163.098783774091	68.756283982288
0	177334	3047198.060142919601	13.486693237252
0	177339	3047204.947514012067	6.887371092466
0	177346	3047265.684985060838	22.246556841491
0	177353	3047377.58146242006	34.231043353019
0	177360	3047464.017212513947	22.075721809126
0	177369	3047670.539990530467	178.01556089428
0	177374	3047680.357386064937	9.81739553447
0	177383	3047956.211653712187	76.059988706922
0	177388	3047966.914995751163	10.703342038976
0	177397	3048225.446636470214	48.114818765892
0	177404	3048296.962366251162	71.515729780948
0	177409	3048303.112550226443	6.150183975281
0	177416	3048551.103473791636	56.326417692856
0	177427	3048868.003511894507	255.14004719268
0	177432	3048941.024317092312	73.020805197805
0	177438	3048987.870523099765	46.846206007453
0	177449	3049466.860636404008	16.31072951369
0	177456	3049475.838688113107	2.695338274179
0	177466	3049636.502371051665	151.94484275115
0	177490	3050408.621940004622	79.048944041875
0	177495	3050415.752647204231	7.130707199609
0	177500	3050472.008221439154	56.255574234923
0	177505	3050512.329330798386	40.321109359232
0	177510	3050557.260169452108	44.930838653722
0	177523	3050660.21487937729	102.95470992518
0	177528	3050693.920407225069	33.705527847779
0	177535	3050740.058020246121	46.137613021052
0	177540	3050742.623462186627	2.565441940506
0	177545	3050829.683316729032	87.059854542405
0	177550	3050862.908908298148	33.225591569116
0	177555	3050881.334327030189	18.425418732041
0	177560	3050905.452552194036	24.118225163847
0	177567	3050987.418755304028	81.966203109992
0	177572	3051015.906852677464	28.488097373436
0	177577	3051084.143210329568	68.236357652104
0	177584	3051382.58846848022	46.031166914568
0	177591	3051503.92662338957	109.44578033826
0	177604	3051548.373212496194	27.557419911053
0	177607	3051549.201176372902	0.827963876708
0	177616	3051716.843116016126	0.520197102425
0	177623	3051833.099453493709	2.050893821401
0	177632	3052215.995313000701	9.064521291195
0	177639	3052501.978482082846	44.245019811573
0	177646	3052812.894617453654	16.114230948801
0	177653	3052939.111903331829	36.489729616036
0	177660	3053085.838195462647	4.690940474675
0	177667	3053210.676115713173	84.762562923689
0	177674	3053489.736104900503	0.463349043895
0	177681	3053679.917526889729	3.527527927309
0	177688	3053725.917681787067	2.115608927107
0	177695	3053805.270649428677	6.382801871161
0	177704	3054372.665822481666	46.530311638567
0	177713	3054504.633286355174	131.96746387351
0	177718	3054521.085442649465	16.452156294291
0	177723	3054624.741540768348	103.65609811888
0	177730	3054758.288932795658	97.140219957969
0	177784	3056851.369419885544	46.305611099992
0	177789	3056860.003913828773	8.634493943229
0	177796	3056886.626055275295	26.622141446522
0	177801	3056893.868581719727	7.242526444432
0	177814	3056953.013797857583	59.145216137856
0	177819	3056968.24454497712	15.230747119537
0	177824	3057001.428646601818	33.184101624698
0	177829	3057003.740659955461	2.312013353643
0	177834	3057013.012466573412	9.271806617951
0	177839	3057066.892583698351	53.880117124939
0	177852	3057250.310902315182	183.41831861683
0	177857	3057381.666382149595	131.35547983441
0	177862	3057417.210148873176	35.543766723581
0	177867	3057419.215197791153	2.005048917977
0	177872	3057485.168347744217	65.953149953064
0	177877	3057487.151011013785	1.982663269568
0	177882	3057575.411111806072	88.260100792287
0	177887	3057576.378524766871	0.967412960799
0	177892	3057614.880363570637	38.501838803766
0	177899	3057857.967027936808	12.948981858246
0	177906	3058384.827516822051	34.406564804484
0	177913	3058425.684067057321	36.178447619975
0	177920	3058441.915592858263	10.690519523839
0	177927	3058816.399295506385	49.318205173048
0	177934	3058896.166787226791	42.536071672595
0	177943	3058954.553765268302	17.829330765416
0	177950	3058992.739423092191	38.185657823889
0	177955	3059021.191485484737	28.452062392546
0	177964	3059156.532958577329	93.781448780116
0	177969	3059227.208188101437	70.675229524108
0	177976	3059243.505637207544	4.000788487342
0	177983	3059309.703050576261	31.972283972945
0	177994	3059427.643000032444	98.46955799482
0	178001	3059510.613374499841	82.970374467397
0	178010	3059605.74612093117	95.132746431329
0	178015	3059619.446881274183	13.700760343013
0	178020	3059640.825972362294	21.379091088111
0	178023	3059641.60808174342	0.782109381126
0	178034	3059723.363470737917	80.392228679432
0	178040	3059726.543298809281	3.179828071364
0	178055	3060891.209425347485	0.2298351455
0	178064	3060933.425828359071	24.797522113887
0	178075	3061051.450564828987	118.02473646992
0	178080	3061058.883131529759	7.432566700772
0	178085	3061064.88363967259	6.000508142831
0	178090	3061079.57445279193	14.69081311934
0	178097	3061537.481412499448	81.648212179237
0	178106	3061763.147989987989	72.308260725971
0	178111	3061804.561885374155	41.413895386166
0	178118	3061918.835523655228	45.890935583602
0	178125	3062218.614399149356	29.115536102079
0	178132	3062320.435288434281	41.904092233787
0	178139	3062402.543902327756	48.140419413566
0	178148	3062504.203624566308	49.298222160554
0	178153	3062556.286237284186	52.082612717878
0	178160	3062663.699134891986	42.307730607033
0	178169	3062743.28097109086	34.005331512306
0	178174	3062851.194029509943	107.91305841908
0	178181	3063260.616215520521	15.70919920766
0	178188	3063341.374180565163	18.671541394648
0	178195	3063446.98409479289	61.37382374046
0	178202	3063510.054603018185	22.582785952127
0	178209	3063605.395760061907	86.192774558534
0	178218	3063768.569439568551	24.687228409836
0	178223	3063780.165309110181	11.59586954163
0	178230	3064019.482939008557	90.985053425471
0	178237	3064409.856128238183	82.495062100057
0	178244	3064522.047200801946	28.905412342982
0	178251	3064782.887579713561	0.857848777593
0	178262	3065089.156083274623	244.89976729139
0	178267	3065131.903414115748	42.747330841125
0	178274	3065216.974350695208	85.07093657946
0	178279	3065287.021872071249	70.047521376041
0	178286	3065462.413024807176	87.1085552215
0	178293	3065631.818170223651	1.967788067309
0	178300	3065711.673822401476	27.06869727116
0	178307	3065859.651190503557	32.306413321958
0	178314	3065908.57801482074	20.736109786854
0	178321	3065962.956484754972	54.026976873032
0	178328	3066103.31401135447	80.365035866126
0	178335	3066168.624363568444	26.330690658798
0	178342	3066281.987245755057	13.689100814619
0	178349	3066699.600887162547	60.641372618424
0	178358	3066725.22614036113	15.084523088607
0	178363	3066741.820479191408	16.594338830278
0	178370	3066836.800926716994	7.935214272881
0	178377	3066873.115677936434	14.929620634083
0	178388	3067170.290361980529	267.4066938052
0	178393	3067173.858331399575	3.567969419046
0	178398	3067178.630775964098	4.772444564523
0	178409	3067442.295946758209	100.15494004065
0	178418	3067526.956816369153	84.660869610944
0	178423	3067531.820072122808	4.863255753655
0	178430	3067679.334432402284	147.51436027948
0	178435	3067688.692395550509	9.357963148225
0	178440	3067702.196322980419	13.50392742991
0	178447	3067885.284848638905	11.573295030903
0	178454	3067909.399664759917	1.108805510385
0	178461	3067975.869730199881	15.991370839198
0	178468	3068347.524349262473	52.588722112728
0	178477	3068447.674488799128	52.264863400696
0	178484	3068486.034196728252	38.359707929124
0	178487	3068486.108296561945	0.074099833693
0	178496	3068524.778167148225	26.1947935122
0	178503	3068841.424218105104	18.728437265799
0	178510	3068972.102911997332	32.638287455781
0	178517	3069029.050549860568	24.235926966267
0	178524	3069238.533329384396	23.481026211561
0	178533	3069306.589240852978	60.606168512885
0	178538	3069348.042494187237	41.453253334259
0	178547	3069509.152904588381	27.84283653919
0	178552	3069536.380715999788	27.227811411407
0	178559	3069598.140097030555	26.875466781218
0	178566	3069712.523753549376	37.61074321289
0	178573	3069756.55615889019	27.14167417806
0	178584	3070208.712094699234	51.973481163021
0	178592	3070425.329790361928	36.558940985647
0	178603	3070843.281015277628	4.142056156914
0	178610	3070994.487248902427	4.543276832206
0	178617	3071025.782373145782	7.492995774644
0	178626	3071280.963491829252	22.436964761635
0	178631	3071325.061737579856	44.098245750604
0	178638	3071443.131366817667	87.10526606097
0	178645	3071780.617720054431	48.476008975054
0	178652	3072051.831144948914	10.443801534803
0	178659	3072401.904065279323	13.301965484964
0	178666	3072423.899179765593	11.296442991374
0	178673	3072513.336259971409	13.569830619501
0	178680	3072639.661269752304	5.651832573254
0	178687	3072691.263318399172	10.377412670468
0	178694	3073016.669794936929	60.313417810089
0	178701	3073301.800088800234	189.26551966049
0	178708	3073445.677132808451	64.912699994936
0	178719	3073538.32826282574	75.374238040204
0	178724	3073593.688470770981	55.360207945241
0	178729	3073602.4164500402	8.727979269219
0	178736	3073651.84706916543	23.501473367463
0	178743	3073770.330227799076	24.573840616199
0	178750	3073852.346435969939	28.08658094473
0	178757	3073970.363321987976	27.385117489594
0	178770	3074157.50209189191	160.88376640719
0	178775	3074177.197803451496	19.695711559586
0	178780	3074213.730883836745	36.533080385249
0	178787	3074258.123253237763	44.392369401018
0	178792	3074389.873459301228	131.75020606346
0	178803	3074863.696280222125	95.332324291342
0	178808	3074876.126874108352	12.430593886227
0	178813	3074902.287776484479	26.160902376127
0	178820	3074944.467666264798	26.430695779435
0	178829	3075124.593174282901	108.56890191447
0	178838	3075157.940972608484	33.347798325583
0	178843	3075213.318508553594	55.37753594511
0	178850	3075296.360499959636	83.041991406042
0	178857	3075325.413019861364	29.052519901728
0	178862	3075339.894718546317	14.481698684953
0	178869	3075398.259811583277	32.497156574702
0	178878	3075437.916276148993	13.369764410949
0	178883	3075501.584813940616	63.668537791623
0	178890	3075637.790519642663	60.377412210772
0	178897	3075681.386791684042	28.546824963992
0	178904	3075737.790916795756	42.895746833703
0	178911	3075929.016760331043	45.284399529055
0	178918	3076131.223333622111	39.121636517197
0	178925	3076244.042467410959	29.431398476511
0	178932	3076306.841368755833	24.238334020878
0	178939	3076479.281855943304	13.881882038334
0	178946	3076568.352586446929	13.607477426011
0	178957	3076689.10748168321	63.676683373319
0	178962	3076703.081598275668	13.974116592458
0	178967	3076738.592700116586	35.511101840918
0	178974	3076882.464690984543	15.157951415667
0	178981	3076997.073104096665	4.505561924997
0	178990	3077158.557021998023	50.763447879989
0	178995	3077176.776080088054	18.219058090031
0	179030	3078335.741008282696	43.737299573614
0	179041	3078489.980978024374	154.23996974168
0	179046	3078493.560360404375	3.579382380001
0	179053	3078723.923615351206	68.80396866716
0	179060	3078850.435086004863	22.336125394502
0	179069	3079032.2299643481	25.95510077717
0	179074	3079077.349115413775	45.119151065675
0	179081	3079143.7890357582	49.140479218761
0	179088	3079413.568131388536	14.4047549634
0	179095	3079426.638996399145	1.279399500167
0	179102	3079580.579891537559	6.692196605983
0	179109	3079931.311510605273	140.85182521479
0	179116	3079970.105430031157	11.927078627374
0	179123	3080015.259943566333	9.135576275735
0	179130	3080279.947531341092	16.570140433161
0	179139	3080696.295349809514	105.69406461505
0	179144	3080701.443845994772	5.148496185258
0	179153	3080835.487021733643	42.432240212085
0	179160	3080946.632127369943	111.1451056363
0	179165	3080959.91633597109	13.284208601147
0	179174	3080998.148693617817	35.076428953338
0	179181	3081045.058351429958	46.909657812141
0	179184	3081046.327606579909	1.269255149951
0	179193	3081143.386941582678	39.201151005719
0	179200	3081213.789196133083	15.95952270706
0	179207	3081354.600984878699	2.228973144636
0	179301	3083613.924348689801	6.234360755214
0	179306	3083635.032180073803	21.107831384002
0	179314	3083759.765749050252	124.73356897645
0	179319	3083782.016516327686	22.250767277434
0	179326	3083855.791406644108	73.774890316422
0	179331	3083868.437534119805	12.646127475697
0	179336	3083906.445667363634	38.008133243829
0	179345	3083937.516113674376	31.070446310742
0	179350	3083945.454340892392	7.938227218016
0	179355	3083947.95074697812	2.496406085728
0	179360	3083964.286170581079	16.335423602959
0	179365	3083965.675464426791	1.389293845712
0	179372	3084033.403981120904	67.728516694113
0	179468	3085900.172409396616	110.45868722863
0	179473	3085907.853338062855	7.680928666239
0	179478	3085914.362416780853	6.509078717998
0	179483	3085917.40660064873	3.044183867877
0	179490	3085990.891166574136	73.484565925406
0	179497	3086019.080758597297	28.189592023161
0	179503	3086092.777688334841	73.696929737544
0	179510	3086110.625289354424	17.847601019583
0	179515	3086134.202296439781	23.577007085357
0	179520	3086135.335243349636	1.132946909855
0	179525	3086179.731070121323	44.395826771687
0	179532	3086246.148819303552	66.417749182229
0	179537	3086269.496993162518	23.348173858966
0	179542	3086282.31371683186	12.816723669342