version 2
run Simulations-64-20191218-11:09:24-65753
attr configname Simulations
attr datetime 20191218-11:09:24
attr experiment Simulations
attr inifile omnetpp.ini
attr iterationvars "$seed=65, $0=7200"
attr iterationvarsf seed=65,7200-
attr measurement "$seed=65, $0=7200"
attr network WifiCelNetPassiveQueue
attr processid 65753
attr repetition 0
attr replication #0
attr resultdir results/Simulations/omnet
attr runnumber 64
attr seedset 65
itervar seed 65
param **.numJobs 10000
param *.OFFLOAD.deadline exponential(7200s)
param *.source.interArrivalTime exponential(120s)
param *.WIFI.serviceTime exponential(40s)
param *.CELL.serviceTime exponential(400s)
param *.OFFLOAD.switchToWi exponential(1524s)
param *.OFFLOAD.switchToCel exponential(3120s)
param *.LOCAL.serviceTime exponential(5s)
param *.REMOTE.serviceTime exponential(1s)

vector 0 WifiCelNetPassiveQueue.WIFI serviceTime:vector ETV
attr interpolationmode none
attr title "wifi Service, vector"
attr unit s
vector 1 WifiCelNetPassiveQueue.WIFI responseTime:vector ETV
attr interpolationmode none
attr title "Response Time, vector"
attr unit s
vector 2 WifiCelNetPassiveQueue.REMOTE serviceTime:vector ETV
attr interpolationmode none
attr title "wifi Service, vector"
attr unit s
vector 3 WifiCelNetPassiveQueue.REMOTE responseTime:vector ETV
attr interpolationmode none
attr title "Response Time, vector"
attr unit s
vector 4 WifiCelNetPassiveQueue.sink lifeTime:vector ETV
attr interpolationmode none
attr title "lifetime of arrived jobs, vector"
attr unit s
vector 5 WifiCelNetPassiveQueue.OFFLOAD queueLength:vector ETV
attr interpolationmode sample-hold
attr title "queue length, vector"
vector 6 WifiCelNetPassiveQueue.OFFLOAD storeCelTime:vector ETV
attr interpolationmode none
attr title "Time in Cell, vector"
attr unit s
vector 7 WifiCelNetPassiveQueue.CELL serviceTime:vector ETV
attr interpolationmode none
attr title "wifi Service, vector"
attr unit s
vector 8 WifiCelNetPassiveQueue.CELL responseTime:vector ETV
attr interpolationmode none
attr title "Response Time, vector"
attr unit s
vector 9 WifiCelNetPassiveQueue.OFFLOAD storeDeadline:vector ETV
attr interpolationmode none
attr title "deadline, vector"
attr unit s
vector 10 WifiCelNetPassiveQueue.OFFLOAD storeWifiTime:vector ETV
attr interpolationmode none
attr title "Time in Wifi, vector"
attr unit s
vector 11 WifiCelNetPassiveQueue.LOCAL serviceTime:vector ETV
attr interpolationmode none
attr title "wifi Service, vector"
attr unit s
vector 12 WifiCelNetPassiveQueue.LOCAL responseTime:vector ETV
attr interpolationmode none
attr title "Response Time, vector"
attr unit s
vector 13 WifiCelNetPassiveQueue.REMOTE queueLength:vector ETV
attr interpolationmode sample-hold
attr title "queue length, vector"
vector 14 WifiCelNetPassiveQueue.LOCAL queueLength:vector ETV
attr interpolationmode sample-hold
attr title "queue length, vector"
0	175458	3000052.26929279622	9.581308799091
0	175465	3000118.028192719403	10.854937118832
0	175472	3000197.58083367782	72.351432385677
0	175481	3000701.702054848448	47.800050967731
0	175486	3000708.814815330255	7.112760481807
0	175493	3000945.752089217253	4.289111289939
0	175525	3001791.559872971949	12.850697685
0	175530	3001816.128371336213	24.568498364264
0	175541	3001940.918487429019	124.79011609281
0	175548	3001974.657419719794	33.738932290775
0	175553	3001978.0131382174	3.355718497606
0	175558	3001988.86414514044	10.85100692304
0	175563	3001996.789666567495	7.925521427055
0	175568	3002044.809331091979	48.019664524484
0	175575	3002119.180279715339	43.411545861895
0	175582	3002241.157412834493	53.515228130411
0	175589	3002329.966571779036	62.55840719104
0	175596	3002357.476942673667	0.600612409637
0	175603	3002383.44571191425	6.481152928804
0	175610	3002714.497815034108	3.347473919353
0	175621	3003011.361825197554	70.237656489341
0	175628	3003160.862723516996	9.508235792375
0	175637	3003258.829009657578	30.901131849396
0	175642	3003320.153091304949	61.324081647371
0	175649	3003522.455703279272	11.670017387419
0	175656	3003634.244886011554	8.922394714289
0	175663	3003900.65031495455	14.269286950079
0	175707	3005700.142743007772	34.945692319792
0	175714	3005830.748760723882	130.60601771611
0	175719	3005838.585986946	7.837226222118
0	175724	3005843.695971614063	5.109984668063
0	175729	3005960.275536099396	116.57956448533
0	175734	3006055.910574351851	95.635038252455
0	175739	3006135.294836400276	79.384262048425
0	175746	3006149.853661329261	14.558824928985
0	175751	3006212.438057058369	62.584395729108
0	175762	3006351.508018645919	131.75897290775
0	175769	3006453.115063344678	32.966683790986
0	175776	3006826.783179831962	96.817008101656
0	175783	3007055.048214696115	36.644628120769
0	175790	3007100.791853704207	38.74943300624
0	175797	3007262.44780427461	0.872779849087
0	175806	3007348.641348856049	28.992824983732
0	175811	3007376.383073578403	27.741724722354
0	175818	3007601.273592855443	0.56700005857
0	175825	3007625.181418908177	20.445475669053
0	175952	3012022.985078231624	27.990748023162
0	175957	3012062.503908427072	39.518830195448
0	175966	3012157.103173735745	94.599265308673
0	175971	3012177.610075291731	20.506901555986
0	175978	3012238.074004339681	60.46392904795
0	175983	3012248.437211767331	10.36320742765
0	175988	3012292.222554416968	43.785342649637
0	175993	3012315.170457482859	22.947903065891
0	175998	3012317.415118742225	2.244661259366
0	176003	3012353.302338808825	35.8872200666
0	176008	3012362.123153737871	8.820814929046
0	176013	3012453.192627182587	91.069473444716
0	176018	3012467.644766011842	14.452138829255
0	176023	3012492.408036272526	24.763270260684
0	176030	3012557.615034733803	65.206998461277
0	176035	3012564.606918087011	6.991883353208
0	176040	3012569.239473911072	4.632555824061
0	176045	3012584.029290713734	14.789816802662
0	176050	3012644.149106074339	60.119815360605
0	176055	3012653.52870483467	9.379598760331
0	176060	3012675.182205942002	21.653501107332
0	176065	3012697.430710975588	22.248505033586
0	176076	3012843.894077872152	146.46336689656
0	176081	3012862.750189617471	18.856111745319
0	176086	3012883.539112999111	20.78892338164
0	176091	3012898.434628489182	14.895515490071
0	176100	3013202.690276423345	70.121883565669
0	176109	3013267.67700535533	64.986728931985
0	176116	3013444.9788166877	177.30181133237
0	176119	3013445.363039374012	0.384222686312
0	176126	3013459.11060718137	13.747567807358
0	176135	3013759.987976419152	111.27482407693
0	176144	3013811.77519743768	51.787221018528
0	176149	3013830.452342004609	18.677144566929
0	176154	3013836.407844332835	5.955502328226
0	176161	3013861.882019845761	10.814014278056
0	176168	3013957.372995998777	7.835742240745
0	176175	3014012.020581238504	1.691320491808
0	176182	3014284.062848239422	0.659121161654
0	176189	3014373.375398521427	10.690228255328
0	176196	3014701.601008549003	26.837592076118
0	176203	3015005.085706133012	2.328274868716
0	176210	3015123.462580255927	70.934957096589
0	176217	3015307.019121578275	46.780240330203
0	176224	3015315.634281156865	3.198504007319
0	176231	3015437.64000050232	15.054453155624
0	176238	3015474.11489342296	5.473642712015
0	176247	3015572.184660109449	5.409702879426
0	176252	3015580.215741374923	8.031081265474
0	176263	3015633.017607427283	51.316137965289
0	176268	3015660.224191879227	27.206584451944
0	176273	3015707.215858319023	46.991666439796
0	176280	3015742.938371665612	15.948410705621
0	176287	3015854.696469497911	19.481471610347
0	176296	3016172.136826135125	13.135894359308
0	176307	3016230.182546399825	58.0457202647
0	176312	3016247.371337932355	17.18879153253
0	176317	3016283.568104058087	36.196766125732
0	176322	3016371.255917350891	87.687813292804
0	176329	3016557.949819107296	132.08097293739
0	176338	3016734.382806025971	164.87504119747
0	176343	3016750.652364174419	16.269558148448
0	176350	3016962.870904830619	12.263262993165
0	176357	3017115.204628548909	28.855762613247
0	176364	3017239.401943078238	5.726126760174
0	176373	3017483.548957898948	68.955314535775
0	176378	3017488.053908431078	4.50495053213
0	176385	3017527.101335806658	29.456712150325
0	176396	3017790.451452808976	125.66842633497
0	176401	3017814.826885406797	24.375432597821
0	176406	3017825.469929129546	10.643043722749
0	176413	3017863.290232614603	27.636220540346
0	176428	3018106.584823962972	164.26834054798
0	176433	3018123.251179421373	16.666355458401
0	176438	3018144.41408074938	21.162901328007
0	176447	3018236.786363657527	92.372282908147
0	176452	3018285.434865068484	48.648501410957
0	176457	3018292.662646837598	7.227781769114
0	176463	3018383.446354539635	90.783707702037
0	176471	3018532.36787739856	40.372556261837
0	176478	3018754.281474984475	21.434795028619
0	176485	3018969.054653801732	5.544234407143
0	176492	3019045.142634491306	17.055668087942
0	176499	3019189.20743558276	45.920666699116
0	176506	3019227.543317820479	8.641930352912
0	176513	3019339.504471969606	40.779779919508
0	176520	3019404.218946770129	49.6666912436
0	176531	3019503.875436172965	95.68804807876
0	176536	3019547.951598431741	44.076162258776
0	176541	3019550.121805387884	2.170206956143
0	176548	3019715.92377127754	3.518911125125
0	176557	3019834.97368643961	1.66961635801
0	176562	3019843.219091437937	8.245404998327
0	176569	3020046.699207670053	39.90058111661
0	176582	3020329.195824037917	84.934875011102
0	176587	3020382.862900664114	53.667076626197
0	176592	3020401.126613405025	18.263712740911
0	176597	3020446.350247159459	45.223633754434
0	176604	3020547.272378378931	29.594931459004
0	176613	3020690.99325450163	53.321922091285
0	176618	3020698.128107529279	7.134853027649
0	176627	3020916.081664813115	9.899365569398
0	176634	3021016.267705235763	100.18604042265
0	176639	3021018.961314810209	2.693609574446
0	176648	3021307.466944082912	33.284464562804
0	176653	3021315.494228609074	8.027284526162
0	176664	3021551.817787824934	42.443144609964
0	176669	3021567.404918111089	15.587130286155
0	176674	3021583.740023504365	16.335105393276
0	176683	3022151.20291525035	47.646859215383
0	176694	3022197.664826438619	46.461911188269
0	176699	3022270.067689776171	72.402863337552
0	176706	3022287.480572256339	17.412882480168
0	176711	3022304.989099690155	17.508527433816
0	176716	3022359.292639696988	54.303540006833
0	176723	3022402.740443772585	1.135033131569
0	176732	3022946.37833406271	122.95378831655
0	176737	3023009.621835636791	63.243501574081
0	176744	3023495.77333552848	7.867326858543
0	176751	3023510.871454680616	10.451849292202
0	176758	3023586.362308034147	54.070932440177
0	176765	3023632.05222027589	38.885156520131
0	176772	3023825.487290129422	84.276237175866
0	176779	3024091.403941373796	13.756186515123
0	176786	3024523.876136384825	9.836617748809
0	176797	3024881.726155986116	18.669971280004
0	176802	3024943.2839229923	61.557767006184
0	176809	3024998.811562527323	55.527639535023
0	176814	3025024.5234169828	25.711854455477
0	176821	3025305.766815375711	8.225655992997
0	176832	3025525.447897824897	82.693006153557
0	176837	3025532.320175001749	6.872277176852
0	176842	3025625.383742943068	93.063567941319
0	176849	3025709.018239281861	13.408826864831
0	176856	3025880.229762309181	43.294920598847
0	176863	3025918.087761317838	32.907091791834
0	176874	3026055.495426400601	42.518403819911
0	176881	3026112.296787361127	56.801360960526
0	176886	3026115.112265969784	2.815478608657
0	176893	3026217.505984821975	102.39371885219
0	176898	3026295.279472187576	77.773487365601
0	176905	3026890.162475232747	34.298089196906
0	176916	3027054.91325903175	40.406946671001
0	176921	3027097.603466625107	42.690207593357
0	176928	3027150.71920408826	53.115737463153
0	176933	3027176.548743075174	25.829538986914
0	176940	3027484.105650551168	12.803283735816
0	176947	3027499.302695175311	6.876329324695
0	176954	3027687.201195838121	53.947120720043
0	176961	3027782.146799067786	22.749884212163
0	176968	3027887.303687493273	33.775365941677
0	176975	3027937.083691924999	2.147396642473
0	176984	3028442.742432870431	16.578028936888
0	176989	3028450.19384055157	7.451407681139
0	176996	3028493.313607545467	32.859391787621
0	177003	3028874.99211496039	78.641262504022
0	177010	3029126.088066570602	29.039256432908
0	177017	3029139.005307639193	7.215132485781
0	177024	3029547.932091366149	30.239527039686
0	177033	3029570.976665371515	13.529291281361
0	177038	3029599.821794933931	28.845129562416
0	177045	3029877.960472456133	22.01218130473
0	177052	3030017.800371273965	51.468121878008
0	177059	3030090.661502578834	4.579830663245
0	177066	3030213.791099810418	19.702047625062
0	177073	3030380.317551522817	51.407799518243
0	177080	3030451.209761573072	2.290007441214
0	177087	3030534.912652528264	2.554317434787
0	177094	3030578.325149744788	40.600854978125
0	177101	3030766.557881074295	10.892651397817
0	177108	3031066.253120492538	23.779024467238
0	177119	3031604.22421304438	384.80991193868
0	177124	3031612.551541106623	8.327328062243
0	177129	3031650.77612572338	38.224584616757
0	177136	3031687.294084322336	5.941033607986
0	177145	3031915.917003723235	64.769666259572
0	177150	3031991.501990603799	75.584986880564
0	177157	3032064.913928192288	7.782738066603
0	177164	3032195.630404068519	28.34234581765
0	177171	3032246.427412419331	31.194333382842
0	177178	3032298.357992701198	44.373102874925
0	177185	3032343.557415916573	14.685037976587
0	177192	3032556.170698670637	6.482840920599
0	177199	3033094.5873451459	45.062417088399
0	177208	3033195.165483362893	19.088536481384
0	177215	3033275.578673674944	80.413190312051
0	177220	3033321.217104465671	45.638430790727
0	177229	3033735.499560368691	69.656503814775
0	177236	3033814.746521515299	79.246961146608
0	177242	3033889.234568982248	74.488047466949
0	177266	3034500.186314317027	71.14984719457
0	177271	3034516.214009233777	16.02769491675
0	177278	3034577.484864315863	61.270855082086
0	177283	3034629.55243841106	52.067574095197
0	177288	3034636.517657827775	6.965219416715
0	177295	3034670.698637593936	34.180979766161
0	177300	3034706.280539630209	35.581902036273
0	177305	3034711.823313616991	5.542773986782
0	177310	3034720.988192344849	9.164878727858
0	177317	3034770.151171658937	12.976567611529
0	177324	3034903.523892966841	13.626885764934
0	177331	3035026.35139973299	40.139949483117
0	177340	3035140.379266464959	49.976774800801
0	177345	3035157.854986746675	17.475720281716
0	177352	3035187.857432749995	18.839486737715
0	177363	3035756.789480457602	2.09561779375
0	177370	3036204.4322398783	34.817888586229
0	177377	3036301.341033376634	37.100965490793
0	177384	3036344.301973276941	35.967466810414
0	177391	3036562.684040674093	9.294914903163
0	177398	3036990.456289227668	4.426890254063
0	177405	3037015.025126353121	13.336308600054
0	177501	3040103.372058883	4.277508113181
0	177506	3040104.54116621603	1.16910733303
0	177511	3040139.259319171218	34.718152955188
0	177518	3040161.1248136356	21.865494464382
0	177523	3040171.774281730467	10.649468094867
0	177528	3040174.393273896164	2.618992165697
0	177533	3040196.998796415698	22.605522519534
0	177538	3040203.833995558532	6.835199142834
0	177543	3040206.402569637958	2.568574079426
0	177548	3040267.124545141843	60.721975503885
0	177555	3040327.566915909623	60.44237076778
0	177566	3040367.079594915818	39.512679006195
0	177571	3040376.389467755805	9.309872839987
0	177576	3040413.265358200507	36.875890444702
0	177581	3040442.536360896645	29.271002696138
0	177586	3040448.421306446858	5.884945550213
0	177593	3040682.521959797407	23.101256343341
0	177600	3041125.830252188332	20.031739870935
0	177607	3041665.981361554069	50.740164798008
0	177614	3041823.15399020873	9.475406548414
0	177623	3041910.998789895047	5.826712630709
0	177628	3041943.983172150339	32.984382255292
0	177637	3042578.128947177931	44.305261004274
0	177644	3042598.438141321113	20.309194143182
0	177649	3042622.766071605544	24.327930284431
0	177656	3042774.329173782585	76.752039769203
0	177665	3042793.97349855581	18.739931499288
0	177672	3042822.508994061323	28.535495505513
0	177677	3042827.29684492985	4.787850868527
0	177684	3043099.454644931741	115.24350998221
0	177693	3043211.152792207902	75.768100260652
0	177706	3043374.847124070625	163.69433186272
0	177719	3043490.059088273214	115.21196420259
0	177724	3043522.249967105129	32.190878831915
0	177731	3043569.593728145138	47.343761040009
0	177736	3043580.670800469077	11.077072323939
0	177743	3043607.507118588643	26.836318119566
0	177748	3043722.371424410755	114.86430582211
0	177753	3043733.192903760824	10.821479350069
0	177758	3043744.150586476481	10.957682715657
0	177765	3043820.232367701505	76.081781225024
0	177770	3043890.792342964499	70.559975262994
0	177775	3043924.280211133222	33.487868168723
0	177784	3044015.859201280133	84.850316002859
0	177789	3044032.666957653545	16.807756373412
0	177796	3044049.636900236338	11.400679554051
0	177803	3044104.580676386224	52.611759686202
0	177810	3044227.173724350737	37.218189021133
0	177817	3044286.318669453102	10.198567315397
0	177824	3044342.813055581896	12.408002783862
0	177835	3044473.551028769337	72.372657121847
0	177840	3044522.298951606439	48.747922837102
0	177845	3044523.093574740742	0.794623134303
0	177852	3044534.288317583159	9.00934056627
0	177859	3044885.65704693572	43.821019992952
0	177868	3045134.064338340068	55.316924285147
0	177873	3045176.501925981392	42.437587641324
0	177882	3045218.142498043797	29.780080325869
0	177889	3045269.127500391718	50.985002347921
0	177894	3045277.540669690846	8.413169299128
0	177901	3045597.294469537952	9.807570791051
0	177908	3045681.832121648082	19.696107489512
0	177915	3045851.175179025973	10.757742389016
0	177924	3046225.330822398991	169.34188414516
0	177929	3046290.663450323562	65.332627924571
0	177936	3046307.055453603126	11.416111914597
0	177943	3046387.497747798307	1.939730774482
0	177950	3046527.582112225174	17.790241901794
0	177957	3046587.924790704607	53.141532734747
0	177964	3046622.263820953036	13.300233436227
0	177971	3046738.015298430482	78.52427152667
0	177978	3046915.63546701756	95.200657273812
0	177985	3047069.6603989936	6.029168009845
0	177992	3047278.404433350963	20.903878579532
0	177999	3047822.15217895315	19.029139460106
0	178006	3047964.876424560553	84.590028221422
0	178013	3047986.385290731417	5.054141891158
0	178022	3048232.892429887427	59.986207836037
0	178027	3048291.754001945954	58.861572058527
0	178034	3048335.89916052992	14.342394169767
0	178041	3048489.247403788651	4.122323338034
0	178048	3048505.278734419732	3.309521941221
0	178055	3048643.211990028702	5.447194806193
0	178064	3048725.107433316893	80.596875488805
0	178069	3048738.802574043743	13.69514072685
0	178078	3048812.805300846368	3.302964702771
0	178083	3048878.880508479085	66.075207632717
0	178092	3049393.383733416692	18.969656097258
0	178097	3049407.334603782128	13.950870365436
0	178104	3049895.28216151507	5.90140528894
0	178156	3051506.797280688102	42.060754506647
0	178165	3051545.908375757957	39.111095069855
0	178170	3051563.215970790001	17.307595032044
0	178175	3051652.386271114129	89.170300324128
0	178180	3051659.978035278453	7.591764164324
0	178185	3051669.432055892922	9.454020614469
0	178190	3051694.326538734183	24.894482841261
0	178195	3051698.296934063171	3.970395328988
0	178200	3051702.15468084941	3.857746786239
0	178205	3051730.506703652533	28.352022803123
0	178208	3051730.511555802151	0.004852149618
0	178215	3051791.580141987142	61.068586184991
0	178220	3051795.429961531604	3.849819544462
0	178227	3051935.715546729364	140.28558519776
0	178232	3051939.598624164588	3.883077435224
0	178241	3052188.582686501883	156.02996240627
0	178246	3052202.642280081456	14.059593579573
0	178253	3052228.296715730335	22.239055892626
0	178262	3052328.211566062273	90.339314855798
0	178267	3052330.898500053983	2.68693399171
0	178276	3052421.234561315006	44.284129505778
0	178282	3052438.879597014909	17.645035699903
0	178359	3053775.22106545427	14.168972403632
0	178366	3054170.900526106904	45.652826661279
0	178377	3054212.600688139385	37.332645709411
0	178384	3054454.354571179445	5.188928086263
0	178396	3054733.046911004925	14.078534417863
0	178407	3054773.204006685046	37.558950044045
0	178414	3054800.22792412685	18.627920135403
0	178421	3054837.965105062752	1.663182514699
0	178428	3054902.653494565552	48.096820957835
0	178435	3055019.211902076527	3.494502726924
0	178444	3055428.104468359663	145.41485804555
0	178449	3055480.746297011579	52.641828651916
0	178456	3055633.083471577876	78.523723102496
0	178463	3055732.161541712043	59.667319321571
0	178470	3055975.981094967849	59.935922643838
0	178479	3056277.09377380516	68.405308054299
0	178484	3056304.063166528761	26.969392723601
0	178493	3056597.8884470921	47.071781303323
0	178498	3056636.708954083162	38.820506991062
0	178505	3056824.745905486861	44.115953140593
0	178512	3056946.984804578188	12.142992268265
0	178521	3056971.759994549176	17.93139673845
0	178526	3056994.750562354359	22.990567805183
0	178533	3057104.244845191721	38.88372835647
0	178540	3057151.828634956974	29.594493138574
0	178549	3057250.700737553439	32.042707447446
0	178554	3057258.629816234222	7.929078680783
0	178595	3058757.211143367435	114.25602252904
0	178600	3058772.817026410042	15.605883042607
0	178605	3058796.353372484231	23.536346074189
0	178614	3058880.507805982607	84.154433498376
0	178621	3058899.182885463129	18.675079480522
0	178626	3058920.708908100966	21.526022637837
0	178631	3058928.969841907953	8.260933806987
0	178638	3058972.381196407714	43.411354499761
0	178643	3059013.837355910627	41.456159502913
0	178648	3059035.374356359275	21.537000448648
0	178655	3059064.554028442512	29.179672083237
0	178660	3059065.968732057173	1.414703614661
0	178667	3059081.097872372229	15.129140315056
0	178672	3059110.301465220432	29.203592848203
0	178677	3059149.882006670297	39.580541449865
0	178682	3059157.21373602174	7.331729351443
0	178689	3059402.078359882407	7.921235915617
0	178696	3059457.239945357961	19.978217470991
0	178703	3059871.93666287349	14.697899691443
0	178710	3060513.278861130076	115.50792775331
0	178717	3060533.831928441994	0.452284793773
0	178724	3060584.543587646371	42.714133928932
0	178731	3060651.761785089017	5.157201587249
0	178738	3060885.415541866952	48.75719212343
0	178747	3060987.597982486797	31.759179705098
0	178752	3061024.082521856434	36.484539369637
0	178759	3061058.740615435365	32.65880599457
0	178766	3061379.632159015307	41.148633133712
0	178773	3061785.470636627096	84.870447160749
0	178780	3061932.095464154975	18.569884778854
0	178787	3061969.92064033344	12.845903755172
0	178794	3062062.374963620556	15.735008000591
0	178803	3062698.530597619888	124.73273074244
0	178808	3062740.41765161726	41.887053997372
0	178815	3062835.735569947485	24.104450839153
0	178822	3063204.631935027193	16.015075526443
0	178829	3063298.076151951687	39.686699815952
0	178838	3063943.309031977031	61.192611351429
0	178843	3063958.950780524884	15.641748547853
0	178850	3063998.671319214703	34.334854204639
0	178861	3064234.328211378674	100.71336247931
0	178870	3064396.205509897574	161.8772985189
0	178877	3064662.688487680843	266.48297778327
0	178882	3064667.565139502362	4.876651821519
0	178889	3064737.596131200122	70.03099169776
0	178894	3064757.451719226325	19.855588026203
0	178899	3064761.217360897373	3.765641671048
0	178910	3065003.075178885904	108.35067647047
0	178915	3065027.592964229822	24.517785343918
0	178920	3065038.048285659322	10.4553214295
0	178929	3065775.45425327647	19.784204415376
0	178934	3065796.000368514637	20.546115238167
0	178943	3065987.568354553231	106.9866963545
0	178948	3065993.204114861411	5.63576030818
0	178955	3066066.014536236328	7.351209831647
0	178962	3066110.616167453646	19.669410458164
0	178971	3066232.87438715452	14.307207473118
0	178976	3066236.745699950016	3.871312795496
0	178985	3066470.641274834947	35.872586420312
0	178990	3066473.254941315199	2.613666480252
0	178997	3066521.516933280925	2.468729880852
0	179008	3067018.334575355094	264.90646732375
0	179013	3067133.511170800562	115.17659544547
0	179018	3067150.359493223828	16.848322423266
0	179025	3067196.958568890333	27.308654992082
0	179034	3067317.127185670327	28.972946215055
0	179039	3067354.829904778988	37.702719108661
0	179048	3067402.369184649791	8.581612404843
0	179055	3067493.002366567954	90.633181918163
0	179060	3067497.263510897348	4.261144329394
0	179067	3067554.415786156083	14.342494316002
0	179074	3067718.742790157162	0.735356595865
0	179081	3067795.727149077891	47.448982941056
0	179088	3067986.327046679065	97.894043264241
0	179095	3068116.432523533745	3.312868750148
0	179102	3068169.893843566016	3.139077620443
0	179109	3068264.090097793429	8.908296897883
0	179116	3068296.319858049684	18.814365625349
0	179125	3068536.04801195554	14.389669398801
0	179132	3068676.722283338688	67.464715696156
0	179139	3068738.360535014614	24.020823748725
0	179148	3068826.148745876605	31.36899674747
0	179157	3068949.909897873055	123.76115199645
0	179164	3069010.321261728872	60.411363855817
0	179169	3069014.209585997517	3.888324268645
0	179176	3069027.230399868189	13.020813870672
0	179181	3069112.983944869696	85.753545001507
0	179192	3069832.50477608541	124.02301058701
0	179197	3069847.018645818932	14.513869733522
0	179202	3069907.984401661294	60.965755842362
0	179211	3070095.490076661389	32.748057985834
0	179216	3070105.425221964746	9.935145303357
0	179223	3070330.099704339566	79.809017810184
0	179230	3070435.818496834062	12.305889047685
0	179299	3072167.319196801414	3.19843981412
0	179308	3072216.759565796823	49.440368995409
0	179317	3072303.053555220677	86.293989423854
0	179324	3072314.560771783801	11.507216563124
0	179327	3072314.743017144565	0.182245360764
0	179334	3072340.458600500352	25.715583355787
0	179339	3072351.634883070038	11.176282569686
0	179346	3072421.046388564118	69.41150549408
0	179353	3072426.087515894488	5.04112733037
0	179358	3072434.273297722942	8.185781828454
0	179361	3072435.633125479091	1.359827756149
0	179368	3072438.700717471805	3.067591992714
0	179375	3072539.457712242098	36.009278417571
0	179382	3072804.319221478517	8.478881270745
0	179389	3072949.489734432748	39.911869216121
0	179396	3073424.582405234036	8.670550270812
0	179403	3073511.290285383486	62.984254594902
0	179410	3073562.324648950075	5.786524777859
0	179417	3073676.832905393825	4.037869426598
0	179426	3074127.598297513205	69.456950192723
0	179431	3074149.605004649761	22.006707136556
0	179442	3074304.769994317563	83.721166907144
0	179447	3074328.756967985546	23.986973667983
0	179456	3074491.514065157976	162.75709717243
0	179461	3074536.370144062657	44.856078904681
0	179466	3074541.037512917278	4.667368854621
0	179473	3074717.518643574553	50.202286948505
0	179480	3074827.360161628395	45.20883724653
0	179487	3074882.029162038127	36.559096296213
0	179494	3074884.631305744904	2.132623954915
0	179501	3075002.277318120668	32.23346072767
0	179508	3075183.57648819364	16.266552973768
0	179515	3075275.807929751407	22.355755587673
0	179522	3075396.927080884504	52.680996233351
0	179529	3075448.704470273633	4.982051172462
0	179536	3075522.89415584034	12.330539258856
0	179543	3075686.076432726088	41.935808096449
0	179550	3075946.136063152644	16.80338148244
0	179557	3076249.302283789762	73.281822825153
0	179566	3076719.433859026835	158.61324627354
0	179571	3076737.049098531672	17.615239504837
0	179580	3076775.140563949509	23.265315438613
0	179585	3076790.095870008168	14.955306058659
0	179592	3076972.470426075175	13.260971240549
0	179599	3077091.276258640504	23.935891436029
0	179606	3077304.051939204487	136.74513334508
0	179613	3077365.39346070062	14.632080100654
0	179620	3077531.909846330894	34.520892823739
0	179627	3077644.866232238964	13.218086609831
0	179634	3077673.532667253099	6.133537244634
0	179641	3078221.949677540807	31.868472016989
0	179648	3078413.905510278047	92.369664640926
0	179655	3078478.148618249313	51.845871173142
0	179664	3078644.314691325779	123.08140131726
0	179669	3078651.943442580909	7.62875125513
0	179676	3078844.4392722375	4.899463713069
0	179685	3079016.138676705653	53.796553620811
0	179694	3079156.197701568855	140.0590248632
0	179701	3079228.110881691766	71.913180122911
0	179706	3079233.447021410231	5.336139718465
0	179709	3079233.463837244699	0.016815834468
0	179718	3079544.900092419123	85.121208620472
0	179725	3079876.483857493679	51.322410605031
0	179732	3079900.134950055275	3.66266311941
0	179739	3079932.364032171098	6.408657792776
0	179746	3079968.194783378139	2.906570516215
0	179755	3080272.934705775996	6.25611332988
0	179760	3080281.003042417839	8.068336641843
0	179767	3080439.50897596358	118.06432386767
0	179776	3080741.480452308037	15.246937887968
0	179781	3080765.949019833524	24.468567525487
0	179788	3080883.919718444655	0.274366657747
0	179795	3081232.190146716033	20.115523926241
0	179802	3081377.760820191243	9.286288359938
0	179809	3081565.539885900155	8.512319034362
0	179818	3082000.495696658681	33.07576072884
0	179823	3082047.025506941892	46.529810283211
0	179830	3082223.118662013712	94.136200809455
0	179837	3082487.190314232287	14.51790636466
0	179848	3082781.569057918457	90.443098606471
0	179853	3082790.574947478956	9.005889560499
0	179858	3082802.287265000923	11.712317521967
0	179865	3082981.018380950625	1.429547527127
0	179872	3083179.18683627615	22.519647595568
0	179879	3083201.651572457508	15.247671475817
0	179886	3083387.087705034142	77.094428271612
0	179893	3083571.10226504179	119.4032818903
0	179900	3083960.325931643007	146.97365427389
0	179909	3084159.800480989397	46.393536966678
0	179916	3084277.000407305708	117.19992631631
0	179921	3084310.02813343939	33.027726133682
0	179928	3084368.279986572829	46.672175208129
0	179935	3084552.789060320719	50.417035776313
0	179944	3084737.84897216563	169.0458776965
0	179950	3084804.105483839142	66.256511673512
0	179998	3086090.876075629096	21.316192815208
0	180005	3086132.405545522359	41.529469893263
0	180016	3086167.315583250101	34.910037727742
0	180021	3086210.276610846927	42.961027596826
0	180026	3086224.532243057434	14.255632210507
0	180033	3086249.579431811044	25.04718875361
0	180038	3086325.314431992069	75.735000181025
0	180043	3086375.545418889333	50.230986897264
0	180054	3086429.733109785259	54.187690895926