version 2
run Simulations-56-20191218-11:09:22-65753
attr configname Simulations
attr datetime 20191218-11:09:22
attr experiment Simulations
attr inifile omnetpp.ini
attr iterationvars "$seed=65, $0=3600"
attr iterationvarsf seed=65,3600-
attr measurement "$seed=65, $0=3600"
attr network WifiCelNetPassiveQueue
attr processid 65753
attr repetition 0
attr replication #0
attr resultdir results/Simulations/omnet
attr runnumber 56
attr seedset 65
itervar seed 65
param **.numJobs 10000
param *.OFFLOAD.deadline exponential(3600s)
param *.source.interArrivalTime exponential(120s)
param *.WIFI.serviceTime exponential(40s)
param *.CELL.serviceTime exponential(400s)
param *.OFFLOAD.switchToWi exponential(1524s)
param *.OFFLOAD.switchToCel exponential(3120s)
param *.LOCAL.serviceTime exponential(5s)
param *.REMOTE.serviceTime exponential(1s)

vector 0 WifiCelNetPassiveQueue.WIFI serviceTime:vector ETV
attr interpolationmode none
attr title "wifi Service, vector"
attr unit s
vector 1 WifiCelNetPassiveQueue.WIFI responseTime:vector ETV
attr interpolationmode none
attr title "Response Time, vector"
attr unit s
vector 2 WifiCelNetPassiveQueue.REMOTE serviceTime:vector ETV
attr interpolationmode none
attr title "wifi Service, vector"
attr unit s
vector 3 WifiCelNetPassiveQueue.REMOTE responseTime:vector ETV
attr interpolationmode none
attr title "Response Time, vector"
attr unit s
vector 4 WifiCelNetPassiveQueue.sink lifeTime:vector ETV
attr interpolationmode none
attr title "lifetime of arrived jobs, vector"
attr unit s
vector 5 WifiCelNetPassiveQueue.OFFLOAD queueLength:vector ETV
attr interpolationmode sample-hold
attr title "queue length, vector"
vector 6 WifiCelNetPassiveQueue.OFFLOAD storeCelTime:vector ETV
attr interpolationmode none
attr title "Time in Cell, vector"
attr unit s
vector 7 WifiCelNetPassiveQueue.CELL serviceTime:vector ETV
attr interpolationmode none
attr title "wifi Service, vector"
attr unit s
vector 8 WifiCelNetPassiveQueue.CELL responseTime:vector ETV
attr interpolationmode none
attr title "Response Time, vector"
attr unit s
vector 9 WifiCelNetPassiveQueue.OFFLOAD storeDeadline:vector ETV
attr interpolationmode none
attr title "deadline, vector"
attr unit s
vector 10 WifiCelNetPassiveQueue.LOCAL serviceTime:vector ETV
attr interpolationmode none
attr title "wifi Service, vector"
attr unit s
vector 11 WifiCelNetPassiveQueue.LOCAL responseTime:vector ETV
attr interpolationmode none
attr title "Response Time, vector"
attr unit s
vector 12 WifiCelNetPassiveQueue.OFFLOAD storeWifiTime:vector ETV
attr interpolationmode none
attr title "Time in Wifi, vector"
attr unit s
vector 13 WifiCelNetPassiveQueue.REMOTE queueLength:vector ETV
attr interpolationmode sample-hold
attr title "queue length, vector"
vector 14 WifiCelNetPassiveQueue.LOCAL queueLength:vector ETV
attr interpolationmode sample-hold
attr title "queue length, vector"
0	175112	3000671.543476336031	87.756813510289
0	175119	3000786.387829405047	13.324328097129
0	175126	3000882.148003915432	53.315019227555
0	175135	3001026.666145910808	59.427082934483
0	175140	3001055.149509195299	28.483363284491
0	175147	3001068.384753937755	5.51213715943
0	175154	3001092.196232228818	8.499279462437
0	175161	3001119.141321990284	8.723335743997
0	175168	3001229.454874354701	76.203423172788
0	175175	3001365.950172623914	77.706130927168
0	175182	3001437.470861354768	37.614703193316
0	175189	3001560.220047627683	14.22132957547
0	175196	3001772.208373490749	33.270675053763
0	175203	3001810.921894361575	1.852862979055
0	175212	3002053.412912645575	45.860191266302
0	175217	3002067.228779979916	13.815867334341
0	175224	3002099.024510721132	1.36680831513
0	175233	3002270.472672538804	105.35646129715
0	175238	3002362.893212925545	92.420540386741
0	175245	3002389.040173956479	6.882002605481
0	175254	3002638.315163063138	26.693511025354
0	175259	3002650.567676774473	12.252513711335
0	175266	3002890.096583614687	20.277362456305
0	175273	3002936.922534316797	45.147882328078
0	175280	3002986.571335975083	17.975755678765
0	175287	3003244.516255376131	56.125265164286
0	175355	3004780.332981658835	131.96021012575
0	175433	3006744.417965939913	8.024852937701
0	175438	3006749.632444932501	5.214478992588
0	175443	3006784.245453586032	34.613008653531
0	175449	3006832.868160550864	48.622706964832
0	175458	3006849.55379703067	16.685636479806
0	175461	3006849.726936461359	0.173139430689
0	175468	3006861.128205649817	11.401269188458
0	175473	3006906.688421786748	45.560216136931
0	175478	3006934.683412248009	27.994990461261
0	175483	3006967.780580871623	33.097168623614
0	175488	3007023.991830346841	56.211249475218
0	175493	3007026.224622382574	2.232792035733
0	175498	3007030.692986256305	4.468363873731
0	175505	3007170.368244521771	83.00132946325
0	175512	3007183.511334583096	2.640467508153
0	175519	3007300.873012568623	71.284765453041
0	175526	3007375.01715756422	6.649363917792
0	175533	3007560.508808841409	40.980467149184
0	175540	3007769.755132534842	0.630266713187
0	175547	3007834.482610602436	49.547497098045
0	175554	3007947.650958875327	5.114743081746
0	175561	3007980.237159151129	3.01854408517
0	175570	3008144.218847064954	74.552479704434
0	175575	3008162.97601012319	18.757163058236
0	175584	3008492.293737508469	79.427306393656
0	175589	3008494.486423353688	2.192685845219
0	175596	3008532.033444942769	15.173892506703
0	175603	3008630.359188725915	25.592882857871
0	175610	3008724.095618828832	12.659388006505
0	175617	3008929.381385733975	75.492939101687
0	175624	3009072.09248185594	35.248508503753
0	175635	3009404.281996788923	223.29728395244
0	175640	3009439.891079680846	35.609082891923
0	175651	3009523.825549401155	83.934469720309
0	175656	3009529.122192490587	5.296643089432
0	175661	3009530.363168044302	1.240975553715
0	175668	3009625.084309398965	94.721141354663
0	175673	3009637.356394600902	12.272085201937
0	175680	3009824.29088454409	15.007678465622
0	175687	3010101.500022367399	6.648879601028
0	175696	3010209.202774853798	43.413991633853
0	175701	3010238.103073712669	28.900298858871
0	175710	3010685.212737564012	73.263296744816
0	175715	3010696.614840838064	11.402103274052
0	175722	3011018.403740372402	23.801242195136
0	175729	3011194.15692292146	33.676849569366
0	175736	3011311.520645943978	27.43566364938
0	175743	3011337.865918209038	22.69577782269
0	175750	3011436.934238552249	8.471210596992
0	175759	3011603.879969541635	57.62921075219
0	175766	3011702.624708566506	79.802310984033
0	175773	3011760.0323332519	14.894173441922
0	175780	3011784.497039479711	8.007992737319
0	175787	3011850.349931248716	41.993266041707
0	175794	3012112.970096928029	2.165173704381
0	175805	3012332.162548779681	87.185782023035
0	175810	3012408.104568650607	75.942019870926
0	175815	3012426.458513295574	18.353944644967
0	175822	3012728.415754858115	52.053500913923
0	175903	3015615.449552942163	156.65146286641
0	175995	3017607.685082545655	46.463683232172
0	175998	3017607.954219885381	0.269137339726
0	176011	3017687.573526308599	79.619306423218
0	176016	3017731.768549838532	44.195023529933
0	176021	3017733.447489833266	1.678939994734
0	176026	3017746.572469831662	13.124979998396
0	176033	3017847.412486283119	100.84001645146
0	176038	3017865.967171425933	18.554685142814
0	176045	3017900.783025301656	34.815853875723
0	176052	3018009.426322444603	108.64329714295
0	176057	3018020.478882579163	11.05256013456
0	176062	3018026.56420538357	6.085322804407
0	176069	3018088.788616857087	62.224411473517
0	176074	3018146.25240567185	57.463788814763
0	176081	3018172.423425680547	26.171020008697
0	176086	3018222.868705519943	50.445279839396
0	176091	3018232.035601096551	9.166895576608
0	176096	3018314.674748771887	82.639147675336
0	176101	3018324.86486469794	10.190115926053
0	176106	3018429.200778030409	104.33591333247
0	176111	3018445.160911266196	15.960133235787
0	176116	3018494.018531867834	48.857620601638
0	176123	3018766.717816664035	49.566429232119
0	176130	3018901.289107206522	30.382906004529
0	176137	3018965.461661235612	11.814005333848
0	176146	3019071.771683913386	47.694736795995
0	176151	3019076.258721702729	4.487037789343
0	176160	3019331.048266281905	24.903102258503
0	176165	3019348.343128718426	17.294862436521
0	176172	3019612.86785537669	15.700487729267
0	176179	3019716.09097094555	1.064546955459
0	176186	3019755.52992570954	13.88705871795
0	176195	3019968.990299895934	66.155752448725
0	176200	3019992.644052102104	23.65375220617
0	176207	3020117.645916671897	29.790306674292
0	176218	3020496.877038212444	85.87855591474
0	176225	3020531.196642156818	34.319603944374
0	176232	3020564.697003850992	33.500361694174
0	176237	3020569.291506989672	4.59450313868
0	176242	3020571.914202840475	2.622695850803
0	176251	3020752.948504267265	83.812456952751
0	176256	3020788.759053933906	35.810549666641
0	176265	3021020.962519263419	190.94692476009
0	176270	3021046.944928890465	25.982409627046
0	176277	3021076.939820538846	3.388165904119
0	176284	3021292.336171950592	35.840261076779
0	176297	3021483.742333133008	89.203894238646
0	176304	3021563.840275604787	80.097942471779
0	176309	3021603.664443358216	39.824167753429
0	176314	3021630.628035720074	26.963592361858
0	176319	3021660.41835380914	29.790318089066
0	176326	3021757.59656563476	28.89028036394
0	176333	3022020.229683931281	194.44299445155
0	176340	3022142.103924969089	21.825843302206
0	176349	3022200.047727263661	14.47544730541
0	176354	3022206.862146470027	6.814419206366
0	176361	3022215.967601595887	8.073132709567
0	176370	3022407.741504100929	60.54267974286
0	176375	3022412.103073279468	4.361569178539
0	176382	3022471.67415278668	50.492712877617
0	176389	3022590.817665613655	29.986242574447
0	176396	3022788.759076320417	65.315050684195
0	176403	3022874.077373582416	39.236696039616
0	176410	3022954.958900608023	73.298846673507
0	176417	3023067.454312106001	36.586961280285
0	176424	3023403.886220076656	21.514898648987
0	176437	3023683.138329377975	101.99321987181
0	176442	3023742.837620354023	59.699290976048
0	176447	3023744.861959336522	2.024338982499
0	176454	3023788.605100830956	43.743141494434
0	176459	3023793.726758088102	5.121657257146
0	176470	3023924.956643864491	77.074992379053
0	176475	3023934.519990767018	9.563346902527
0	176480	3023980.420976440073	45.900985673055
0	176489	3024062.422368333044	66.787752627274
0	176494	3024067.614940777787	5.192572444743
0	176501	3024099.231217756216	4.689746721606
0	176508	3024182.249305508645	29.067273395368
0	176515	3024384.083525730261	59.884042235781
0	176522	3024451.427599666367	21.192051815051
0	176531	3024722.864976357542	32.495656678114
0	176538	3024777.590751728739	54.725775371197
0	176543	3024798.541068067183	20.950316338444
0	176556	3025132.137563553553	150.71880081218
0	176567	3025277.293417791887	145.15585423833
0	176572	3025333.289078880067	55.99566108818
0	176577	3025402.376324562485	69.087245682418
0	176586	3025449.718563005259	47.342238442774
0	176591	3025473.607119631751	23.888556626492
0	176598	3025489.645935916649	16.038816284898
0	176605	3025539.321226459074	49.675290542425
0	176610	3025644.454049880265	105.13282342119
0	176615	3025646.889534006941	2.435484126676
0	176620	3025670.744788303152	23.855254296211
0	176627	3025691.668050475159	14.37956919175
0	176650	3026622.631661519304	0.997167312111
0	176659	3026658.534771500618	35.903109981314
0	176666	3026763.37537203077	12.105407217785
0	176673	3026787.089331302441	15.693107489877
0	176680	3026839.861025214781	1.243170983171
0	176687	3026960.62212335256	16.919869922485
0	176694	3027176.565222683652	17.202105152681
0	176701	3027238.440230545557	14.666064532814
0	176708	3027342.481634080053	15.341964110436
0	176715	3027598.895369604049	3.526305340959
0	176724	3027676.942343313141	9.774225552894
0	176729	3027727.791088529782	50.848745216641
0	176736	3027849.140971743658	7.239271110463
0	176745	3027989.405500683634	118.75987365317
0	176750	3028004.3456695197	14.940168836066
0	176757	3028525.983501801917	94.100460826379
0	176766	3028611.013581846259	35.730387967528
0	176771	3028650.106768773393	39.093186927134
0	176778	3028653.122388950096	1.140563628302
0	176787	3028761.587236642402	69.056890043855
0	176794	3028805.41283596807	43.825599325668
0	176799	3028840.35542392816	34.94258796009
0	176806	3028938.680473022966	3.154582991542
0	176813	3029008.492279577598	35.808706943617
0	176820	3029060.609477311172	14.378661298566
0	176835	3029209.573025160413	124.79011609281
0	176860	3029753.256128145505	6.696076240472
0	176865	3029755.040613365811	1.784485220306
0	176872	3029761.521766294615	6.481152928804
0	176877	3029764.869240213968	3.347473919353
0	176886	3029816.811595620076	51.942355406108
0	176896	3029998.336770101389	181.52517448131
0	176901	3029998.592116693577	0.255346592188
0	176908	3030092.622706129279	94.030589435702
0	176915	3030118.288659152903	25.665953023624
0	176920	3030124.836697179773	6.54803802687
0	176925	3030133.759091894062	8.922394714289
0	176934	3030308.908245093222	175.14915319916
0	176941	3030355.743725353241	46.835480260019
0	176948	3030423.139193329134	67.395467975893
0	176953	3030427.180503686853	4.041310357719
0	176960	3030521.226069698676	94.045566011823
0	176965	3030574.728046483744	53.501976785068
0	176970	3030593.391244103618	18.663197619874
0	176977	3030773.873146319896	45.306935395441
0	176984	3031088.535542686834	1.468727737539
0	176993	3031389.062420437738	94.884239494981
0	176998	3031447.021061567653	57.958641129915
0	177005	3031492.525374688063	34.945692319792
0	177012	3031648.604627837717	106.98492359126
0	177023	3032013.084226211411	79.646468816624
0	177030	3032081.399500357318	68.315274145907
0	177035	3032160.783762405743	79.384262048425
0	177040	3032175.342587334728	14.558824928985
0	177047	3032426.448466949414	62.584395729108
0	177129	3035070.08876484138	85.04542347193
0	177134	3035115.155025649274	45.066260807894
0	177139	3035168.192343383132	53.037317733858
0	177144	3035203.654122089067	35.461778705935
0	177149	3035224.75982999588	21.105707906813
0	177156	3035297.62666109737	18.201021283569
0	177167	3035594.132223466055	82.694725538126
0	177174	3035654.287370125403	41.801010946284
0	177183	3035766.015174932664	87.76607535554
0	177188	3035792.265268782025	26.250093849361
0	177197	3035972.826695632688	141.4198304305
0	177202	3036009.451382099709	36.624686467021
0	177209	3036052.041273679404	20.487003319549
0	177216	3036275.5062185218	4.702601850473
0	177223	3036424.856336204883	66.961957561667
0	177232	3036542.875159024154	15.178465586715
0	177239	3036574.795113592954	31.9199545688
0	177246	3036625.042956706165	50.247843113211
0	177251	3036687.805118851411	62.762162145246
0	177258	3036791.596812685274	18.495473394111
0	177265	3036926.782456299461	28.113029156049
0	177272	3037136.098828167976	4.815690999923
0	177279	3037160.870649214297	20.123150290654
0	177286	3037181.953823109805	6.937561574685
0	177293	3037406.508248743237	30.154672555985
0	177300	3037758.060554385932	66.680081653859
0	177307	3037869.951982110231	94.599265308673
0	177314	3037908.138361570022	20.506901555986
0	177321	3038080.466234671028	90.132010208453
0	177330	3038208.933427765042	37.207416158618
0	177335	3038231.881330830933	22.947903065891
0	177344	3038343.205722230202	9.034060391919
0	177349	3038352.026537159248	8.820814929046
0	177356	3038469.190276109155	20.622970292976
0	177363	3038746.538996411011	24.763270260684
0	177370	3038937.540711386533	67.600282246337
0	177377	3039085.275827939419	19.714403415391
0	177384	3039101.326891386314	14.789816802662
0	177391	3039123.996865661312	19.254016884741
0	177405	3039606.394523906978	108.19089133345
0	177410	3039625.250635652297	18.856111745319
0	177423	3039871.093929460903	14.895515490071
0	177428	3039941.215813026572	70.121883565669
0	177436	3040125.842374295668	64.986728931985
0	177447	3040220.427589958655	0.384222686312
0	177458	3040530.184827278098	70.973786735006
0	177463	3040603.754767028323	73.569939750225
0	177468	3040611.773612525242	8.018845496919
0	177475	3040866.971214045993	18.677144566929
0	177484	3040898.198524457069	21.385870941251
0	177489	3040956.585988972333	58.387464515264
0	177496	3040993.817107907662	0.668699216839
0	177505	3041035.588921004904	18.933285591846
0	177510	3041062.76383810298	27.174917098076
0	177517	3041118.865391018384	17.854350941572
0	177524	3041201.805012592992	68.723287750195
0	177533	3041371.606471386318	158.01197031517
0	177540	3041448.936494133969	77.330022747651
0	177551	3041724.988458860128	276.05196472616
0	177556	3041740.042912015752	15.054453155624
0	177561	3041772.754147522111	32.711235506359
0	177566	3041821.334513925049	48.580366402938
0	177573	3041844.298387581264	4.947361914445
0	177580	3041860.023195463141	4.443061158045
0	177587	3041885.108875661091	5.435497559574
0	177598	3042046.693620424367	13.071828426982
0	177605	3042151.316557662408	36.075012309191
0	177612	3042464.037701561645	107.92864462942
0	177619	3042595.817691744766	1.052529565283
0	177626	3042897.69342744997	15.9421101212
0	177633	3042904.791092573626	1.306696805254
0	177640	3042945.483935250344	17.18879153253
0	177647	3043286.354124430899	72.236862370536
0	177654	3043370.587199990426	47.879639552866
0	177661	3043554.770882393659	7.531277007628
0	177668	3043945.017790790491	78.224175773835
0	177675	3044270.546735702125	45.247074699403
0	177682	3044341.601519701288	49.108983460801
0	177693	3044487.796303510239	60.30594234837
0	177698	3044556.751618046014	68.955314535775
0	177707	3044637.877343721538	81.125725675524
0	177712	3044667.334055871863	29.456712150325
0	177717	3044680.977628376259	13.643572504396
0	177724	3044985.248158195276	28.0942736274
0	177731	3045005.783815445754	2.972483673019
0	177738	3045111.491786679778	35.55415711358
0	177747	3045161.805497387666	17.663610894786
0	177752	3045164.853961409176	3.04846402151
0	177759	3045673.630585370591	29.201448082806
0	177768	3045815.671990952148	21.162901328007
0	177773	3045821.291276473898	5.61928552175
0	177780	3045914.979903080176	48.648501410957
0	177789	3045997.551251558959	23.894992534525
0	177795	3046075.422189257979	77.87093769902
0	178180	3053592.405068057362	3.314113473412
0	178187	3053625.264459844983	32.859391787621
0	178192	3053703.905722349005	78.641262504022
0	178197	3053715.486177354244	11.580455005239
0	178202	3053816.366232278886	100.88005492464
0	178207	3053823.581364764667	7.215132485781
0	178212	3053836.832968019231	13.251603254564
0	178217	3053868.14042371708	31.307455697849
0	178222	3053881.669714998441	13.529291281361
0	178227	3053905.629102033684	23.959387035243
0	178232	3053907.208992757855	1.579890724171
0	178237	3053929.221174062585	22.01218130473
0	178242	3053969.137648235796	39.916474173211
0	178247	3053996.586527102492	27.448878866696
0	178252	3054001.166357765737	4.579830663245
0	178257	3054046.10659103881	44.940233273073
0	178264	3054161.484480658933	115.37788962012
0	178272	3054228.394906443986	66.910425785053
0	178301	3055268.195316542145	38.224584616757
0	178310	3055324.793412125249	56.598095583104
0	178315	3055325.652758305705	0.859346180456
0	178321	3055393.454696345923	67.801938040218
0	178326	3055469.039683226487	75.584986880564
0	178331	3055505.758639268215	36.718956041728
0	178336	3055537.356870198879	31.598230930664
0	178341	3055565.699216016529	28.34234581765
0	178346	3055578.61648627979	12.917270263261
0	178351	3055647.878761687309	69.262275407519
0	178358	3056198.567030285835	40.085309119329
0	178365	3056323.295880745293	31.694850954011
0	178372	3056338.383682930557	2.727539209513
0	178379	3056357.485746214646	2.381079731804
0	178386	3056498.316788658346	8.024870910308
0	178394	3056697.316197424487	149.7586702323
0	178556	3060867.577369717646	24.905542855887
0	178566	3060931.764273579601	64.186903861955
0	178571	3060944.854589445813	13.090315866212
0	178576	3060967.075468078688	22.220878632875
0	178586	3061004.039699690716	36.964231612028
0	178592	3061015.066471338625	11.026771647909
0	178597	3061124.819023162446	109.75255182382
0	178602	3061145.002617815242	20.183594652796
0	178607	3061224.160402989792	79.15778517455
0	178612	3061245.576050679661	21.415647689869
0	178619	3061296.982457564874	51.406406885213
0	178622	3061298.977867879744	1.99541031487
0	178629	3061307.313213768128	8.335345888384
0	178634	3061380.396220011286	73.083006243158
0	178645	3061499.042214304795	118.64599429351
0	178650	3061578.912572333149	79.870358028354
0	178657	3061612.288630894785	33.376058561636
0	178662	3061632.616956376231	20.328325481446
0	178667	3061643.23417627495	10.617219898719
0	178672	3061647.511684388131	4.277508113181
0	178677	3061648.680791721161	1.16910733303
0	178682	3061683.398944676349	34.718152955188
0	178687	3061705.264439140731	21.865494464382
0	178692	3061720.275029848194	15.010590707463
0	178701	3061766.507488782373	46.232458934179
0	178706	3061809.686490349816	43.179001567443
0	178711	3061832.26084043998	22.574350090164
0	178716	3061856.69904992595	24.43820948597
0	178721	3061877.163627963571	20.464578037621
0	178726	3061897.894669177066	20.731041213495
0	178731	3061937.407348183261	39.512679006195
0	178736	3062044.927412940008	107.52006475675
0	178741	3062054.237285779995	9.309872839987
0	178748	3062091.113176224697	36.875890444702
0	178753	3062116.796834733476	25.683658508779
0	178760	3062209.917944918158	93.121110184682
0	178765	3062214.480207077536	4.562262159378
0	178774	3062659.830815476392	69.424191803524
0	178779	3062663.073542229548	3.242726753156
0	178786	3062867.535769637816	18.596539447887
0	178806	3063086.60117560984	209.23572577467
0	178874	3065160.726029774875	11.077072323939
0	178879	3065187.562347894441	26.836318119566
0	178884	3065199.690977285543	12.128629391102
0	178889	3065233.527049698479	33.836072412936
0	178900	3065273.814500883077	40.287451184598
0	178907	3065322.004943167884	48.190442284807
0	178914	3065396.144765917521	74.139822749637
0	178919	3065405.129771740655	8.985005823134
0	178928	3065611.959467321291	120.9435776353
0	178933	3065616.537032660536	4.577565339245
0	178942	3065667.707016285028	45.995539543194
0	178947	3065696.428538554395	28.721522269367
0	178954	3065829.210879662368	18.094983553443
0	178961	3065937.17756451854	23.591106283152
0	178968	3066034.264337767689	0.849719479127
0	178975	3066139.580499380618	26.802401152789
0	178982	3066168.733228966999	14.810887265519
0	178993	3066405.685126854747	105.51901664196
0	178998	3066449.506146847699	43.821019992952
0	179003	3066459.873150347212	10.367003499513
0	179010	3066666.428001001505	65.526898628616
0	179017	3066688.540731493111	9.125635955755
0	179024	3067072.012773441917	9.091505922448
0	179031	3067141.626410293704	55.979378813654
0	179038	3067459.551879151734	24.883038470556
0	179049	3067646.2833232524	59.427140826129
0	179054	3067657.041065641416	10.757742389016
0	179059	3067695.808095478598	38.767029837182
0	179066	3067733.725097807655	34.053479505435
0	179073	3067852.993824003807	29.972891778432
0	179080	3068143.649678003664	41.411284433185
0	179089	3068169.589069139509	8.330462548827
0	179094	3068194.315845655159	24.72677651565
0	179101	3068235.433576235245	16.842479795668
0	179109	3068300.146081323368	53.647927613312
0	179195	3071389.319647898994	106.36291523847
0	179200	3071395.221053187934	5.90140528894
0	179205	3071433.815298952933	38.594245764999
0	179210	3071441.854968829038	8.039669876105
0	179215	3071455.21195521974	13.356986390702
0	179218	3071456.624312338282	1.412357118542
0	179225	3071480.827306612713	24.202994274431
0	179230	3071510.289550818471	29.462244205758
0	179237	3071554.285703438895	43.996152620424
0	179242	3071563.045185897295	8.7594824584
0	179249	3071597.580155227337	5.969536603954
0	179260	3071716.458479814849	99.872066863178
0	179265	3071729.670522125834	13.212042310985
0	179270	3071745.229536171725	15.559014045891
0	179277	3071840.984379864902	1.230928264244
0	179286	3072063.433006348596	200.10524121713
0	179291	3072072.345562963125	8.912556614529
0	179300	3072112.217779216216	39.111095069855
0	179307	3072129.52537424826	17.307595032044
0	179312	3072143.249328501526	13.723954253266
0	179319	3072233.060420125018	9.454020614469
0	179326	3072289.832907800039	43.620086769627
0	179333	3072324.754016340435	3.857746786239
0	179340	3072345.800819490204	0.901834951161
0	179469	3074728.254962103448	30.417207290759
0	179474	3074733.443890189711	5.188928086263
0	179479	3074735.341523394525	1.897633204814
0	179484	3074752.107246425567	16.765723031042
0	179489	3074757.66613977688	5.558893351313
0	179494	3074766.304441206539	8.638301429659
0	179499	3074803.863391250584	37.558950044045
0	179506	3074821.749485079004	17.88609382842
0	179511	3074838.655056054639	16.905570975635
0	179516	3074840.318238569338	1.663182514699
0	179523	3074894.0384804833	53.720241913962
0	179528	3074983.029217471469	88.990736988169
0	179535	3075038.641891943202	55.612674471733
0	179542	3075119.079648103128	80.437756159926
0	179547	3075124.252298474786	5.172650371658
0	179554	3075202.776021577282	78.523723102496
0	179559	3075262.443340898853	59.667319321571
0	179566	3075359.99110537447	97.547764475617
0	179571	3075364.299029537844	4.307924163374
0	179576	3075474.033838720442	109.7348091826
0	179583	3075501.003231444043	26.969392723601
0	179590	3075548.075012747366	47.071781303323
0	179595	3075586.895519738428	38.820506991062
0	179600	3075638.299473059646	51.403953321218
0	179605	3075705.714646403301	67.415173343655
0	179612	3075725.609584273063	1.379451904024
0	179619	3075794.706832549194	34.04772337536
0	179626	3075845.697189006993	31.243889617809
0	179633	3075890.0475863404	6.622583535666
0	179640	3076030.761730053602	30.685542179457
0	179649	3076210.259524673638	121.39985738377
0	179656	3076240.411176535432	30.151651861794
0	179661	3076309.395119614218	68.983943078786
0	179668	3076376.804423521903	64.987120040457
0	179679	3076468.632923172421	26.170592151782
0	179686	3076495.146286200542	11.030376633149
0	179693	3076570.484460574113	4.414612219107
0	179702	3076640.218932527203	32.979329327935
0	179707	3076660.274136376704	20.055203849501
0	179714	3076867.68241189035	107.22766648231
0	179723	3077069.134722061273	125.3049828519
0	179728	3077119.451416844804	50.316694783531
0	179735	3077301.152588061798	6.120112804536
0	179742	3077426.004557883459	84.154433498376
0	179749	3077801.341238212951	18.675079480522
0	179756	3077825.016013294017	21.526022637837
0	179765	3078079.159995235911	35.632021353713
0	179770	3078151.317510174017	72.157514938106
0	179777	3078220.08183925109	21.537000448648
0	179784	3078327.160193524309	7.584534674178
0	179795	3078660.930067634677	253.81539253484
0	179800	3078690.13366048288	29.203592848203
0	179805	3078729.714201932745	39.580541449865
0	179816	3078853.403297895162	68.485621344547
0	179825	3078993.395642993521	139.99234509836
0	179832	3079008.093542684964	14.697899691443
0	179837	3079123.601470438271	115.50792775331
0	179842	3079126.418073794677	2.816603356406
0	179847	3079148.575749556335	22.157675761658
0	179854	3079342.738421757895	2.745179109139
0	179861	3079473.235793364894	5.100148929341
0	179868	3079522.300508547904	38.693259350605
0	179910	3080839.931350902693	41.887053997372
0	179916	3080965.593264366832	125.66191346414
0	179948	3081771.643640940607	1.082133377055
0	179957	3081828.302021150442	56.658380209835
0	179968	3081946.919355218695	118.61733406825
0	179973	3081971.194418382356	24.275063163661
0	179976	3081971.26178926558	0.067370883224
0	179983	3081975.027430936628	3.765641671048
0	179990	3082083.378107407098	108.35067647047
0	179999	3082267.750998225466	184.37289081837
0	180006	3082309.894788723129	42.143790497663
0	180013	3082345.827590105598	35.932801382469
0	180018	3082426.988256442744	81.160666337146
0	180023	3082533.974952797247	106.9866963545
0	180028	3082565.805449641566	31.830496844319
0	180033	3082570.7254295013	4.919979859734
0	180040	3082578.076639332947	7.351209831647
0	180045	3082597.746049791111	19.669410458164
0	180050	3082598.929304145828	1.183254354717
0	180057	3082669.813219368855	70.883915223027
0	180062	3082680.021716685762	10.208497316907
0	180069	3082715.894303106074	35.872586420312
0	180074	3082718.507969586326	2.613666480252
0	180081	3082758.067922520514	2.468729880852
0	180092	3083254.885564594683	264.90646732375
0	180097	3083370.062160040151	115.17659544547
0	180102	3083386.910482463417	16.848322423266
0	180109	3083433.509558129922	27.308654992082
0	180118	3083553.678174909916	28.972946215055
0	180123	3083591.380894018577	37.702719108661
0	180132	3083638.92017388938	8.581612404843
0	180139	3083729.553355807543	90.633181918163
0	180144	3083733.814500136937	4.261144329394
0	180151	3083790.966775395672	14.342494316002
0	180158	3083955.293779396751	0.735356595865
0	180165	3084032.27813831748	47.448982941056
0	180172	3084222.878035918654	97.894043264241
0	180179	3084352.983512773334	3.312868750148
0	180186	3084406.444832805605	3.139077620443
0	180193	3084500.641087033018	8.908296897883
0	180200	3084532.870847289273	18.814365625349
0	180209	3084785.217198786411	27.007866990083
0	180216	3084852.791179313281	67.57398052687
0	180221	3084875.157773280056	22.366593966775
0	180228	3084968.993705832244	12.681926483546
0	180235	3085044.905264171266	16.531013576394
0	180242	3085148.329481979015	25.848241141732
0	180251	3085554.17606068245	60.411363855817
0	180256	3085558.064384951095	3.888324268645
0	180267	3085800.383002424025	227.18010709051
0	180272	3085808.069860417745	7.68685799372
0	180277	3085824.285599793754	16.215739376009
0	180286	3085942.473148081444	14.513869733522
0	180291	3085962.211228474477	19.738080393033
0	180298	3086123.492446405678	60.616989710497
0	180305	3086182.675570463739	21.555939811055
0	180312	3086230.288794370778	39.363727808023
0	180319	3086464.163596392311	33.811476399005
0	180326	3086542.804542437722	75.534755301362
0	180333	3086643.162804140674	26.059477923562
0	180340	3086813.983490765185	70.679809187382
0	180347	3086838.281940507836	14.378537433477
0	180354	3087027.225821686211	2.76177511382
0	180361	3087232.690401781224	13.689895058151
0	180370	3087380.825067053102	65.097690721187
0	180377	3087456.998659770232	76.17359271713
0	180382	3087468.555878223453	11.557218453221