version 2
run Simulations-54-20191218-11:09:22-65753
attr configname Simulations
attr datetime 20191218-11:09:22
attr experiment Simulations
attr inifile omnetpp.ini
attr iterationvars "$seed=65, $0=1700"
attr iterationvarsf seed=65,1700-
attr measurement "$seed=65, $0=1700"
attr network WifiCelNetPassiveQueue
attr processid 65753
attr repetition 0
attr replication #0
attr resultdir results/Simulations/omnet
attr runnumber 54
attr seedset 65
itervar seed 65
param **.numJobs 10000
param *.OFFLOAD.deadline exponential(1700s)
param *.source.interArrivalTime exponential(120s)
param *.WIFI.serviceTime exponential(40s)
param *.CELL.serviceTime exponential(400s)
param *.OFFLOAD.switchToWi exponential(1524s)
param *.OFFLOAD.switchToCel exponential(3120s)
param *.LOCAL.serviceTime exponential(5s)
param *.REMOTE.serviceTime exponential(1s)

vector 0 WifiCelNetPassiveQueue.WIFI serviceTime:vector ETV
attr interpolationmode none
attr title "wifi Service, vector"
attr unit s
vector 1 WifiCelNetPassiveQueue.WIFI responseTime:vector ETV
attr interpolationmode none
attr title "Response Time, vector"
attr unit s
vector 2 WifiCelNetPassiveQueue.REMOTE serviceTime:vector ETV
attr interpolationmode none
attr title "wifi Service, vector"
attr unit s
vector 3 WifiCelNetPassiveQueue.REMOTE responseTime:vector ETV
attr interpolationmode none
attr title "Response Time, vector"
attr unit s
vector 4 WifiCelNetPassiveQueue.sink lifeTime:vector ETV
attr interpolationmode none
attr title "lifetime of arrived jobs, vector"
attr unit s
vector 5 WifiCelNetPassiveQueue.OFFLOAD queueLength:vector ETV
attr interpolationmode sample-hold
attr title "queue length, vector"
vector 6 WifiCelNetPassiveQueue.OFFLOAD storeCelTime:vector ETV
attr interpolationmode none
attr title "Time in Cell, vector"
attr unit s
vector 7 WifiCelNetPassiveQueue.OFFLOAD storeDeadline:vector ETV
attr interpolationmode none
attr title "deadline, vector"
attr unit s
vector 8 WifiCelNetPassiveQueue.CELL serviceTime:vector ETV
attr interpolationmode none
attr title "wifi Service, vector"
attr unit s
vector 9 WifiCelNetPassiveQueue.CELL responseTime:vector ETV
attr interpolationmode none
attr title "Response Time, vector"
attr unit s
vector 10 WifiCelNetPassiveQueue.LOCAL serviceTime:vector ETV
attr interpolationmode none
attr title "wifi Service, vector"
attr unit s
vector 11 WifiCelNetPassiveQueue.LOCAL responseTime:vector ETV
attr interpolationmode none
attr title "Response Time, vector"
attr unit s
vector 12 WifiCelNetPassiveQueue.OFFLOAD storeWifiTime:vector ETV
attr interpolationmode none
attr title "Time in Wifi, vector"
attr unit s
vector 13 WifiCelNetPassiveQueue.REMOTE queueLength:vector ETV
attr interpolationmode sample-hold
attr title "queue length, vector"
vector 14 WifiCelNetPassiveQueue.LOCAL queueLength:vector ETV
attr interpolationmode sample-hold
attr title "queue length, vector"
0	174023	3000510.835914965415	45.83046105877
0	174030	3000834.923522609039	84.123446095825
0	174037	3000847.516678206301	4.017446592719
0	174046	3000889.760079871987	19.419164273467
0	174051	3000894.791751147667	5.03167127568
0	174058	3000913.469520087812	5.630614633823
0	174069	3001197.071903220458	64.271455781396
0	174076	3001266.866411010926	69.794507790468
0	174083	3001289.3631400745	22.496729063574
0	174088	3001290.953502682537	1.590362608037
0	174095	3001336.561903761831	45.608401079294
0	174102	3001387.915735335656	51.353831573825
0	174107	3001396.855831374169	8.940096038513
0	174124	3001779.852668497437	257.05779018815
0	174129	3001797.674862297607	17.82219380017
0	174134	3001805.215332254761	7.540469957154
0	174141	3001892.92873114452	87.713398889759
0	174146	3001933.02047007695	40.09173893243
0	174153	3001948.133008924763	15.112538847813
0	174158	3001958.40769723167	10.274688306907
0	174163	3002013.17242318984	54.76472595817
0	174170	3002033.336140591319	11.446375745075
0	174177	3002226.173021278854	9.388347005385
0	174184	3002379.076511412755	31.887210598249
0	174191	3002440.09107765917	14.808629445053
0	174200	3002506.210345560896	64.612384547248
0	174205	3002537.556968956661	31.346623395765
0	174212	3002728.837117561002	63.568145096944
0	174219	3002857.88116153537	40.747775979097
0	174226	3002904.405327838686	2.154550604493
0	174233	3003002.445779976602	39.57408462236
0	174242	3003079.334049751995	3.855397813491
0	174247	3003083.833830935156	4.499781183161
0	174256	3003309.182728332151	51.813981937085
0	174261	3003328.592993051225	19.410264719074
0	174361	3006228.195748453838	4.321533029428
0	174367	3006261.382611395604	33.186862941766
0	174375	3006298.341984299764	36.95937290416
0	174378	3006298.892636275509	0.550651975745
0	174385	3006346.669799249336	47.777162973827
0	174390	3006372.983036111292	26.313236861956
0	174399	3006485.286963429115	112.30392731782
0	174404	3006502.820293618493	17.533330189378
0	174411	3006601.745561174519	98.925267556026
0	174416	3006667.777139823864	66.031578649345
0	174421	3006682.146969665012	14.369829841148
0	174424	3006682.247169620123	0.100199955111
0	174431	3006742.102616504317	59.855446884194
0	174438	3006785.135205247624	43.032588743307
0	174443	3006818.001765299223	32.866560051599
0	174450	3006835.930239496365	17.928474197142
0	174455	3006853.748771741349	17.818532244984
0	174464	3007150.538082945622	98.815425744357
0	174469	3007201.516803878368	50.978720932746
0	174476	3007299.936199392334	65.554814420828
0	174483	3007549.26307263477	4.59096064143
0	174490	3007709.185252282254	15.651834243188
0	174497	3007769.692274291631	51.087960555263
0	174504	3007953.335634488078	60.451860257959
0	174511	3008013.216125937594	22.952539846032
0	174518	3008028.427497981412	12.71149938823
0	174525	3008231.268138096658	72.456291897847
0	174534	3008387.482770191613	32.064935729135
0	174539	3008398.045270156851	10.562499965238
0	174546	3008659.247481571458	114.08487287179
0	174555	3008827.916603936027	21.913040190485
0	174560	3008836.865988635167	8.94938469914
0	174567	3008872.148107440185	23.52746526966
0	174574	3009119.229147059493	156.80491155724
0	174583	3009417.647086863968	26.459137856486
0	174588	3009549.004056055876	131.35696919191
0	174595	3009743.811121044833	48.112059384552
0	174604	3009907.137039601962	61.575064874138
0	174609	3009915.701531219453	8.564491617491
0	174616	3009954.219841801142	5.897633653622
0	174625	3010116.019228595951	54.165467725055
0	174630	3010147.818419983723	31.799191387772
0	174637	3010238.5960655218	27.403491308045
0	174646	3010848.263058538584	130.13924667072
0	174651	3010863.42661733682	15.163558798236
0	174658	3010993.870573269665	3.096047217966
0	174665	3011081.414850406847	42.679073578296
0	174672	3011221.291305875373	55.524486260895
0	174681	3011327.931915991054	25.837275655468
0	174686	3011330.072252100594	2.14033610954
0	174693	3011827.573305258132	21.914712192987
0	174700	3011890.066244462675	60.045469801346
0	174707	3011970.346455468117	33.682846527077
0	174714	3012042.589207814796	19.813094426007
0	174721	3012169.884130341102	27.928003902314
0	174730	3012319.243266561575	8.871960106242
0	174735	3012324.745332184293	5.502065622718
0	174742	3012391.267130483109	31.104308717419
0	174749	3012455.274761874077	14.10493067758
0	174756	3012531.45703070809	70.846874045743
0	174763	3012652.631761553913	51.569782542428
0	174772	3013050.277288997809	41.30200202409
0	174781	3013148.278796506965	98.001507509156
0	174788	3013251.749774343856	103.47097783689
0	174793	3013265.718297402863	13.968523059007
0	174798	3013274.535168408909	8.816871006046
0	174805	3013314.167052534025	3.187905716593
0	174814	3013577.118502643793	37.910451774218
0	174819	3013624.67336185867	47.554859214877
0	174826	3013663.780092231087	6.747142310771
0	174839	3013837.586150424005	119.14553463106
0	174844	3013860.540700794518	22.954550370513
0	174849	3013886.05781028159	25.517109487072
0	174854	3013892.231464043227	6.173653761637
0	174861	3013963.162449917837	15.093892808301
0	174868	3014103.095789841618	20.992438260319
0	174877	3014308.203100533258	35.438221294117
0	174882	3014326.474511694749	18.271411161491
0	174889	3014367.922633429893	31.050164801822
0	174898	3014415.078871850808	20.62231763996
0	174903	3014419.856594797609	4.777722946801
0	174910	3014528.085339956444	10.637091475148
0	174925	3014637.407999493582	72.101786444858
0	174930	3014735.077026277237	97.669026783655
0	174935	3014803.042516996383	67.965490719146
0	174940	3014826.290750565901	23.248233569518
0	174945	3014898.007842553661	71.71709198776
0	175078	3017505.965046025922	356.39029776606
0	175087	3017576.274624217782	70.30957819186
0	175092	3017638.659297650929	62.384673433147
0	175097	3017645.399912541166	6.740614890237
0	175102	3017677.891853758993	32.491941217827
0	175107	3017696.938213346247	19.046359587254
0	175114	3017741.965068711732	45.026855365485
0	175122	3017807.988919471286	66.023850759554
0	175127	3017820.42380106853	12.434881597244
0	175132	3017834.014623102541	13.590822034011
0	175137	3017848.863046075149	14.848422972608
0	175142	3017932.898194185944	84.035148110795
0	175147	3017942.851177486671	9.952983300727
0	175154	3018059.861019503208	117.00984201654
0	175189	3019013.659953783703	26.727862491987
0	175196	3019038.216143960278	24.556190176575
0	175202	3019074.305877878924	36.089733918646
0	175207	3019081.319263299825	7.013385420901
0	175216	3019143.837711567509	62.518448267684
0	175221	3019161.773223426249	17.93551185874
0	175226	3019193.830101807415	32.056878381166
0	175231	3019206.811242837327	12.981141029912
0	175236	3019238.576146794505	31.764903957178
0	175243	3019404.0851080273	165.5089612328
0	175248	3019439.091233320332	35.006125293032
0	175257	3019481.314471562732	42.2232382424
0	175262	3019495.216364726967	13.901893164235
0	175267	3019625.613457701827	130.39709297486
0	175274	3019726.683574083657	101.07011638183
0	175279	3019760.761324865844	34.077750782187
0	175287	3019828.939727521089	38.209938770826
0	175297	3020133.711670063376	3.982066825289
0	175304	3020182.737704626931	49.026034563555
0	175307	3020184.118509528787	1.380804901856
0	175316	3020237.505189108876	11.224835868284
0	175325	3020372.252191003963	107.50109589658
0	175330	3020388.609029902402	16.356838898439
0	175339	3020469.276289861372	24.002879076429
0	175344	3020478.665402293359	9.389112431987
0	175351	3020692.902677175052	23.327693511012
0	175358	3020703.423371886797	8.549529506518
0	175365	3020820.81578288894	86.886892038182
0	175376	3021052.890699310193	27.712287233178
0	175385	3021241.087746999525	105.58384439195
0	175391	3021267.064962799314	25.977215799789
0	175474	3023752.367795143466	2.077668822867
0	175479	3023770.97794664653	18.610151503064
0	175484	3023773.73756042371	2.75961377718
0	175489	3023777.480626016543	3.743065592833
0	175500	3023857.341993216715	35.908945174254
0	175507	3024090.15392321353	35.789488140717
0	175514	3024199.209576081276	39.158401246585
0	175521	3024340.980082318963	55.848479081469
0	175528	3024496.589306918166	126.03269441133
0	175535	3024735.097534732962	30.196863718131
0	175542	3024840.128307075899	88.22483014639
0	175551	3025066.31354985229	6.884908322959
0	175558	3025723.817434630829	13.447269882367
0	175567	3025790.263761321049	56.265418199396
0	175572	3025845.936488851939	55.67272753089
0	175579	3025919.814262716974	34.289934992784
0	175587	3025992.533849535127	64.276064428715
0	175659	3028021.117283730763	60.389472127278
0	175664	3028037.731763293661	16.614479562898
0	175671	3028345.630915742148	0.481635468412
0	175680	3028386.165694302889	13.561683591951
0	175685	3028474.336342877334	88.170648574445
0	175694	3028656.467736119912	35.277393018081
0	175703	3028673.052016851494	16.584280731582
0	175710	3028799.60425596573	23.978296854914
0	175717	3029204.4784328481	130.33714188919
0	175724	3029230.924333388484	6.902975611613
0	175731	3029301.828727407074	24.136160454164
0	175738	3029393.968085184611	44.192500324665
0	175745	3029556.606139928719	59.94095266629
0	175752	3029669.001525031859	6.017318788543
0	175759	3029781.333965056161	21.309391363305
0	175766	3029824.727601581827	6.872656567896
0	175773	3029880.50900534193	4.395305226074
0	175785	3030452.384962466472	61.48329002701
0	175792	3030593.310795112522	0.22325097747
0	175803	3030746.596379688671	3.703975517835
0	175812	3031108.331257503193	158.51226447165
0	175817	3031153.401956687119	45.070699183926
0	175824	3031715.889773268991	143.08386821591
0	175831	3031824.020611194153	4.589676892294
0	175838	3031956.648249735368	23.183478359832
0	175906	3033815.638516796623	58.999906479779
0	175912	3033912.485693251885	96.847176455262
0	175917	3033943.259396438827	30.773703186942
0	175922	3033993.174894565781	49.915498126954
0	175929	3034005.313979839918	12.139085274137
0	175940	3034095.968988505985	90.655008666067
0	175976	3035057.082263369812	163.73196093033
0	175981	3035123.01430723239	65.932043862578
0	175986	3035135.148091909206	12.133784676816
0	175993	3035205.940119442171	1.695260596722
0	176000	3035337.242560218857	99.55310571153
0	176007	3035499.245965807259	3.953368621553
0	176014	3035776.249289195977	19.057556281419
0	176021	3035841.189248050008	43.456003099495
0	176028	3035945.335609594116	28.341919799717
0	176035	3036131.867207223721	13.630340998381
0	176044	3036279.964513037839	15.122642394693
0	176051	3036347.534533462105	67.570020424266
0	176056	3036357.50496498674	9.970431524635
0	176063	3036554.207174964421	13.4400501283
0	176070	3036614.462410684267	14.755946710305
0	176077	3036658.95264770494	34.974267731035
0	176084	3037166.246425527341	40.326786409831
0	176091	3037219.673674502779	2.802874561852
0	176098	3037473.745122147108	14.781610655639
0	176105	3037582.081531463941	21.514295993945
0	176131	3038708.345478490339	15.562678349572
0	176139	3038777.736251036912	69.390772546573
0	176144	3038816.750345117215	39.014094080303
0	176149	3038843.605945013629	26.855599896414
0	176154	3038938.73386054123	95.127915527601
0	176159	3038945.808973999291	7.075113458061
0	176164	3038958.828794555274	13.019820555983
0	176169	3038971.603444024103	12.774649468829
0	176174	3038976.037349398282	4.433905374179
0	176181	3039179.318024896844	43.930350209121
0	176188	3039298.413172604212	0.334769176268
0	176195	3039423.962241067016	28.987647410792
0	176202	3039489.101586268209	10.198346077937
0	176209	3039690.076129854711	144.07789858017
0	176220	3039811.107398048573	22.122629599312
0	176227	3039859.961319181465	26.806380674592
0	176342	3042579.428502827079	77.706130927168
0	176347	3042628.142689457333	48.714186630254
0	176354	3042675.317246227824	47.174556770491
0	176359	3042699.028114275759	23.710868047935
0	176368	3042732.298789329522	33.270675053763
0	176373	3042734.151652308577	1.852862979055
0	176378	3042736.576627463467	2.42497515489
0	176383	3042764.186645984154	27.610018520687
0	176388	3042778.002513318495	13.815867334341
0	176395	3042843.692511051867	1.36680831513
0	176404	3043015.140672869539	105.35646129715
0	176409	3043107.56121325628	92.420540386741
0	176416	3043133.708174287214	6.882002605481
0	176425	3043382.983163393873	26.693511025354
0	176430	3043395.235677105208	12.252513711335
0	176437	3043634.764583945422	20.277362456305
0	176444	3043681.590534647532	45.147882328078
0	176451	3043731.239336305818	17.975755678765
0	176458	3043989.184255706866	56.125265164286
0	176465	3044084.680882253244	70.670466338833
0	176472	3044145.938995074704	21.543835449481
0	176479	3044477.941378105315	41.993667846721
0	176486	3044553.949894082314	51.620996287875
0	176497	3044772.723192369089	73.991160184844
0	176502	3044792.843476186183	20.120283817094
0	176509	3044803.768052013698	10.924575827515
0	176514	3044820.253215562926	16.485163549228
0	176521	3044877.760267208368	25.686736665181
0	176528	3045161.674041142342	34.821146380116
0	176535	3045182.407307403548	1.900095536077
0	176577	3046843.708025066217	35.89167770149
0	176582	3046860.601530269237	16.89350520302
0	176587	3046886.185990410798	25.584460141561
0	176592	3046895.894445226984	9.708454816186
0	176597	3046914.537050877057	18.642605650073
0	176604	3046979.387654140822	10.113409754743
0	176611	3047427.905580801045	87.569142573612
0	176618	3047501.21210503356	41.822426988338
0	176625	3047620.12720728798	0.4747964314
0	176632	3047664.927491005014	15.24652939814
0	176643	3047984.739810758658	1.161844801567
0	176652	3048080.262162230138	61.915246553585
0	176659	3048085.476641222726	5.214478992588
0	176666	3048115.956570504858	30.479929282132
0	176671	3048132.642206984664	16.685636479806
0	176678	3048259.109830357752	0.173139430689
0	176685	3048486.570824664525	3.152936108376
0	176692	3048570.114758584134	27.994990461261
0	176699	3048708.293633125274	92.19872142459
0	176706	3048717.619209607258	2.232792035733
0	176713	3048746.332854153261	13.251564963826
0	176720	3048779.456418372901	32.970037562273
0	176729	3049004.633478925986	9.143109725608
0	176734	3049065.435232017059	60.801753091073
0	176741	3049152.311264854813	10.119946599129
0	176748	3049182.640330856498	20.500920847439
0	176757	3049362.205121764345	77.124310307735
0	176762	3049375.918851412256	13.713729647911
0	176771	3049490.557138318403	45.984424433042
0	176776	3049504.663641341652	14.106503023249
0	176783	3049643.672922650154	91.308227224994
0	176790	3049804.732081498937	28.709946960476
0	176797	3049840.521052246979	8.227428533811
0	176806	3050080.621803025244	10.046260131108
0	176811	3050084.818469199772	4.196666174528
0	176818	3050182.745789532655	17.685435670884
0	176825	3050254.82190812212	12.982905686735
0	176832	3050399.079182840136	119.26201638524
0	176839	3050508.53658933789	2.240605577931
0	176846	3050653.169230861823	41.127721590605
0	176855	3051365.867830848861	83.934469720309
0	176862	3051463.746850951494	11.586456852058
0	176873	3051548.899502171379	33.903001074595
0	176878	3051632.65029735694	83.750795185561
0	176883	3051644.922382558877	12.272085201937
0	176890	3051743.619101007925	15.007678465622
0	176897	3052020.828238831234	6.648879601028
0	176906	3052128.530991317633	43.413991633853
0	176911	3052157.431290176504	28.900298858871
0	176920	3052604.540954027847	73.263296744816
0	176925	3052615.943057301899	11.402103274052
0	176932	3052937.731956836237	23.801242195136
0	176939	3053113.485139385295	33.676849569366
0	176946	3053230.848862407813	27.43566364938
0	176953	3053257.194134672873	22.69577782269
0	176960	3053356.262455016084	8.471210596992
0	176967	3053523.20818600547	57.62921075219
0	176974	3053578.376329939743	36.225715893435
0	176981	3053692.911207806629	104.51787164481
0	176990	3053872.799828311937	44.999559198019
0	176999	3053975.918430259201	103.11860194726
0	177055	3055562.930054638209	3.455119639979
0	177066	3055785.350407231449	222.42035259324
0	177071	3055794.990609452332	9.640202220883
0	177078	3055865.684283635512	70.69367418318
0	177085	3055933.457732106203	67.773448470691
0	177092	3055990.718733690418	57.261001584215
0	177097	3056002.464633863039	11.745900172621
0	177102	3056071.543447160998	69.078813297959
0	177109	3056259.545181983249	37.261253976418
0	177116	3056382.753131940061	67.370706984296
0	177123	3056518.023294464394	19.449654769988
0	177130	3056577.123952805887	52.897264109552
0	177137	3057022.309799208691	28.128721913117
0	177146	3057052.513452089556	17.004693162056
0	177151	3057120.520231046607	68.006778957051
0	177158	3057156.771322527132	12.284179110232
0	177165	3057293.414999760022	19.375950189091
0	177172	3057395.297561187229	3.754313867122
0	177179	3057525.71248524132	83.643669396321
0	177186	3057632.43587186208	16.88211270143
0	177193	3057710.342999167887	13.521745341642
0	177200	3057828.845563849273	35.436824696034
0	177207	3057879.139813103698	49.423003878075
0	177214	3058018.580039041131	7.429408465011
0	177221	3058194.393696175357	21.557360293938
0	177228	3058363.375857133168	4.750415391059
0	177235	3058549.222962058332	90.566867398297
0	177242	3058569.133559396581	19.485711122861
0	177290	3059744.508281890302	18.554685142814
0	177295	3059779.324135766025	34.815853875723
0	177300	3059802.997134479482	23.672998713457
0	177307	3059820.429918193634	3.168205032573
0	177314	3059889.444768578354	6.085322804407
0	177321	3059977.222244124947	40.58654515649
0	177375	3062219.06869851584	4.487037789343
0	177380	3062226.986308901539	7.917610385699
0	177389	3062316.076099723847	89.089790822308
0	177396	3062442.276135068526	126.20003534468
0	177407	3062518.642258597665	76.366123529139
0	177412	3062532.529317315615	13.88705871795
0	177417	3062535.506819618867	2.977502303252
0	177422	3062594.203004832413	58.696185213546
0	177429	3062617.856757038583	23.65375220617
0	177434	3062647.647063712875	29.790306674292
0	177441	3062662.952005885103	15.304942172228
0	177446	3062685.124979925852	22.172974040749
0	177451	3062719.444583870226	34.319603944374
0	177458	3062950.871474310067	33.500361694174
0	177465	3063137.008237223388	4.59450313868
0	177472	3063147.601183901927	6.158348379281
0	177479	3063185.462041926889	36.151118851833
0	177486	3063406.658519128303	5.910225194995
0	177493	3063526.269649744886	18.089706811655
0	177508	3064142.002135959859	60.981418746362
0	177513	3064177.842397036638	35.840261076779
0	177518	3064186.510537511613	8.668140474975
0	177525	3064291.677357393559	7.480715580666
0	177532	3064391.20216046356	80.097942471779
0	177539	3064657.492477628778	39.824167753429
0	177546	3064902.649709730991	18.079151288858
0	177553	3064997.821470264011	32.360134736304
0	177560	3065122.33131173952	98.163797395717
0	177569	3065166.933646043635	21.764732763789
0	177574	3065170.249192950488	3.315546906853
0	177585	3065327.020889617718	102.23331058441
0	177590	3065335.094022327285	8.073132709567
0	177595	3065337.228252650121	2.134230322836
0	177602	3065445.940437364186	22.730986527478
0	177609	3065537.339369795908	46.549994376715
0	177618	3065711.312688556081	54.204200865671
0	177623	3065748.444905858274	37.132217302193
0	177630	3065815.90288723357	15.606458797239
0	177637	3066125.00839358084	49.7357656304
0	177646	3066333.79961157917	117.16799020065
0	177653	3066400.057540938668	66.257929359498
0	177658	3066415.063441431635	15.005900492967
0	177667	3066425.817642594673	7.177501362301
0	177672	3066485.516933570721	59.699290976048
0	177679	3066544.615587402289	3.239306350076
0	177686	3066562.199588692338	14.750290692627
0	177693	3066643.097277901053	18.197783307711
0	177704	3066684.733518770666	30.4644163156
0	177711	3066730.634504443721	45.900985673055
0	177718	3066797.422257070995	66.787752627274
0	177723	3066802.614829515738	5.192572444743
0	177728	3066822.161683208627	19.546853692889
0	177735	3066918.175032831796	57.005817127068
0	177746	3067008.170885043449	35.345354785612
0	177867	3069297.12328378426	15.693107489877
0	177872	3069298.366454767431	1.243170983171
0	177881	3069370.25340946773	71.886954700299
0	177886	3069387.455514620411	17.202105152681
0	177891	3069421.910682606036	34.455167985625
0	177896	3069433.330338493952	11.419655887916
0	177901	3069448.672302604388	15.341964110436
0	177910	3069472.605320436774	23.933017832386
0	177915	3069482.379545989668	9.774225552894
0	177920	3069510.929757730701	28.550211741033
0	177925	3069532.424848265182	21.495090534481
0	177932	3069539.664119375645	7.239271110463
0	177939	3069658.423993028811	118.75987365317
0	177944	3069673.364161864877	14.940168836066
0	177953	3069721.164212832608	47.800050967731
0	177958	3069728.276973314415	7.112760481807
0	177965	3070083.697700267841	4.289111289939
0	177972	3070148.285112734463	13.516173758918
0	177979	3070210.133740172652	12.804256641821
0	177988	3070304.270514589742	78.609123920952
0	177993	3070334.848254116777	30.577739527035
0	178000	3070433.206816760204	12.385894200852
0	178007	3070848.504135304766	24.515747792875
0	178070	3072370.665952091469	70.076773005469
0	178075	3072396.190415452656	25.524463361187
0	178080	3072403.844915186027	7.654499733371
0	178085	3072434.746047035423	30.901131849396
0	178090	3072462.854464663605	28.108417628182
0	178095	3072488.520417687229	25.665953023624
0	178100	3072500.190435074648	11.670017387419
0	178109	3072587.209947310383	87.019512235735
0	178114	3072601.479234260462	14.269286950079
0	178119	3072635.170275466336	33.691041205874
0	178124	3072650.198801764518	15.028526298182
0	178133	3072717.594269740411	67.395467975893
0	178142	3072819.103313758246	23.385827246847
0	178147	3072857.828283737233	38.724969978987
0	178154	3073108.6413132399	18.663197619874
0	178161	3073179.040616448971	45.306935395441
0	178168	3073493.703012815909	1.468727737539
0	178177	3073794.229890566813	94.884239494981
0	178182	3073852.188531696728	57.958641129915
0	178189	3073897.692844817138	34.945692319792
0	178196	3074053.772097966792	106.98492359126
0	178207	3074418.251696340486	79.646468816624
0	178214	3074486.566970486393	68.315274145907
0	178219	3074565.951232534818	79.384262048425
0	178224	3074580.510057463803	14.558824928985
0	178231	3074831.615937078489	62.584395729108
0	178238	3074976.996807905376	131.75897290775
0	178245	3075148.909766205354	103.27259739221
0	178252	3075325.613218306194	96.145804948347
0	178259	3075447.836997044467	14.546278040874
0	178268	3075569.101223021015	66.510867909185
0	178273	3075588.459056169946	19.357833148931
0	178280	3075662.416447696951	4.325215624026
0	178287	3076047.596533907772	19.400660758031
0	178296	3076297.621412016302	1.343116814084
0	178311	3076505.769442414405	208.1480303981
0	178418	3079272.886867020089	62.762162145246
0	178423	3079314.742896304172	41.856029284083
0	178430	3079356.711329530262	41.96843322609
0	178435	3079358.037989445193	1.326659914931
0	178440	3079362.853680445116	4.815690999923
0	178445	3079374.276601315608	11.422920870492
0	178454	3079393.206931294893	18.930329979285
0	178459	3079399.943743953589	6.736812658696
0	178464	3079430.098416509574	30.154672555985
0	178469	3079458.089164532736	27.990748023162
0	178476	3079607.497451487055	37.426247737493
0	178483	3079722.861949152087	34.23425481618
0	178492	3079820.59089491561	60.46392904795
0	178497	3079830.95410234326	10.36320742765
0	178504	3080080.245855940845	45.531337020096
0	178511	3080168.315208129025	2.244661259366
0	178518	3080318.770170506382	5.42797061274
0	178525	3080512.073333538157	91.069473444716
0	178534	3080708.898290796987	49.388234329956
0	178539	3080774.105289258264	65.206998461277
0	178546	3080784.148167090056	6.991883353208
0	178553	3080986.038204949739	6.06859139764
0	178562	3081053.987096384886	60.119815360605
0	178567	3081062.262927295505	8.275830910619
0	178574	3081113.191114528038	22.248505033586
0	178581	3081241.325781117003	24.741167865286
0	178588	3081703.021856533517	47.047142592108
0	178595	3082001.336311323402	20.78892338164
0	178606	3082432.715045103846	64.237894073931
0	178611	3082479.752176004657	47.037130900811
0	178616	3082482.87240306512	3.120227060463
0	178625	3082810.754197438715	177.30181133237
0	178628	3082811.138420125027	0.384222686312
0	178641	3082947.530107905909	70.973786735006
0	178646	3083021.100047656134	73.569939750225
0	178651	3083029.118893153053	8.018845496919
0	178658	3083284.316494673804	18.677144566929
0	178667	3083315.54380508488	21.385870941251
0	178672	3083373.931269600144	58.387464515264
0	178679	3083411.162388535473	0.668699216839
0	178688	3083452.934201632715	18.933285591846
0	178693	3083480.109118730791	27.174917098076
0	178700	3083536.210671646195	17.854350941572
0	178707	3083619.150293220803	68.723287750195
0	178716	3083788.951752014129	158.01197031517
0	178723	3083866.28177476178	77.330022747651
0	178734	3084142.333739487939	276.05196472616
0	178739	3084157.388192643563	15.054453155624
0	178744	3084190.099428149922	32.711235506359
0	178749	3084238.67979455286	48.580366402938
0	178756	3084261.643668209075	4.947361914445
0	178763	3084277.368476090952	4.443061158045
0	178770	3084302.454156288902	5.435497559574
0	178777	3084478.17365707714	27.206584451944
0	178784	3084564.182631212652	80.289170526337
0	178793	3084704.420495088123	79.552035082419
0	178798	3084800.082546804552	95.662051716429
0	178805	3085003.743985490688	7.244359479867
0	178812	3085044.177558405227	8.270249316481
0	178819	3085305.318509330363	95.274039447516
0	178826	3085459.487644902011	36.196766125732
0	178833	3085582.972747615635	74.844014982824
0	178840	3085877.710175721431	106.51800321021
0	178847	3086286.937106652085	119.50201532869
0	178854	3086684.457839995052	22.397625079255
0	178871	3087183.804956101553	12.941976132732
0	178878	3087188.309906633683	4.50495053213
0	178887	3087217.766618784008	29.456712150325
0	178892	3087343.435045118974	125.66842633497
0	178899	3087584.817711792895	14.156376709377
0	178908	3087665.587199688468	10.643043722749
0	178913	3087693.223420228814	27.636220540346
0	178928	3087896.334204459433	164.26834054798
0	178933	3087913.000559917834	16.666355458401
0	178938	3087934.163461245841	21.162901328007
0	178947	3088026.535744153988	92.372282908147
0	178952	3088075.184245564945	48.648501410957
0	178957	3088082.412027334059	7.227781769114
0	178962	3088173.195735036096	90.783707702037
0	178969	3088479.353817291107	197.60911565792
0	178976	3088530.728394994241	15.370880263997
0	178983	3088660.44756861419	23.972385098435
0	178992	3088759.167656157428	58.388087555815
0	178997	3088760.056033110893	0.888376953465
0	179004	3088837.819208323856	5.207134020534
0	179013	3089042.228752227602	71.854677826933
0	179020	3089093.65742870152	51.428676473918
0	179029	3089107.887285535996	14.229856834476
0	179034	3089185.381716837742	77.494431301746
0	179039	3089229.457879096518	44.076162258776
0	179048	3089435.920673118881	42.520426844341
0	179053	3089450.455380809358	14.534707690477
0	179066	3089578.352222692296	57.542145620142
0	179071	3089618.252803808906	39.90058111661
0	179076	3089631.172432473111	12.919628664205
0	179081	3089639.340603437719	8.168170964608
0	179088	3089725.37443561859	8.6875213658
0	179095	3089933.55717284086	18.263712740911
0	179102	3089987.496107067466	1.394457624732
0	179113	3090237.10757182181	115.33502111577
0	179118	3090240.860575595189	3.753003773379
0	179123	3090252.365492246435	11.504916651246
0	179130	3090389.927582541604	16.680558744942
0	179137	3090506.211396717651	103.26627621279
0	179144	3090710.497922605554	6.994680832753