version 2
run Simulations-31-20191218-11:09:18-65753
attr configname Simulations
attr datetime 20191218-11:09:18
attr experiment Simulations
attr inifile omnetpp.ini
attr iterationvars "$seed=25, $0=3600"
attr iterationvarsf seed=25,3600-
attr measurement "$seed=25, $0=3600"
attr network WifiCelNetPassiveQueue
attr processid 65753
attr repetition 0
attr replication #0
attr resultdir results/Simulations/omnet
attr runnumber 31
attr seedset 25
itervar seed 25
param **.numJobs 10000
param *.OFFLOAD.deadline exponential(3600s)
param *.source.interArrivalTime exponential(120s)
param *.WIFI.serviceTime exponential(40s)
param *.CELL.serviceTime exponential(400s)
param *.OFFLOAD.switchToWi exponential(1524s)
param *.OFFLOAD.switchToCel exponential(3120s)
param *.LOCAL.serviceTime exponential(5s)
param *.REMOTE.serviceTime exponential(1s)

vector 0 WifiCelNetPassiveQueue.WIFI serviceTime:vector ETV
attr interpolationmode none
attr title "wifi Service, vector"
attr unit s
vector 1 WifiCelNetPassiveQueue.WIFI responseTime:vector ETV
attr interpolationmode none
attr title "Response Time, vector"
attr unit s
vector 2 WifiCelNetPassiveQueue.OFFLOAD queueLength:vector ETV
attr interpolationmode sample-hold
attr title "queue length, vector"
vector 3 WifiCelNetPassiveQueue.REMOTE serviceTime:vector ETV
attr interpolationmode none
attr title "wifi Service, vector"
attr unit s
vector 4 WifiCelNetPassiveQueue.REMOTE responseTime:vector ETV
attr interpolationmode none
attr title "Response Time, vector"
attr unit s
vector 5 WifiCelNetPassiveQueue.sink lifeTime:vector ETV
attr interpolationmode none
attr title "lifetime of arrived jobs, vector"
attr unit s
vector 6 WifiCelNetPassiveQueue.CELL serviceTime:vector ETV
attr interpolationmode none
attr title "wifi Service, vector"
attr unit s
vector 7 WifiCelNetPassiveQueue.CELL responseTime:vector ETV
attr interpolationmode none
attr title "Response Time, vector"
attr unit s
vector 8 WifiCelNetPassiveQueue.REMOTE queueLength:vector ETV
attr interpolationmode sample-hold
attr title "queue length, vector"
vector 9 WifiCelNetPassiveQueue.OFFLOAD storeCelTime:vector ETV
attr interpolationmode none
attr title "Time in Cell, vector"
attr unit s
vector 10 WifiCelNetPassiveQueue.OFFLOAD storeDeadline:vector ETV
attr interpolationmode none
attr title "deadline, vector"
attr unit s
vector 11 WifiCelNetPassiveQueue.OFFLOAD storeWifiTime:vector ETV
attr interpolationmode none
attr title "Time in Wifi, vector"
attr unit s
vector 12 WifiCelNetPassiveQueue.LOCAL serviceTime:vector ETV
attr interpolationmode none
attr title "wifi Service, vector"
attr unit s
vector 13 WifiCelNetPassiveQueue.LOCAL responseTime:vector ETV
attr interpolationmode none
attr title "Response Time, vector"
attr unit s
vector 14 WifiCelNetPassiveQueue.LOCAL queueLength:vector ETV
attr interpolationmode sample-hold
attr title "queue length, vector"
0	176402	3000010.281340283689	89.984510547983
0	176411	3000090.631698616725	80.350358333036
0	176418	3000161.974039274437	71.342340657712
0	176425	3000212.368194407857	50.39415513342
0	176430	3000297.307523959367	84.93932955151
0	176437	3000475.579942350584	29.234818639455
0	176444	3000539.162793539843	16.371981602586
0	176451	3000618.346574024665	12.772329411616
0	176460	3000771.748323674607	21.588521929094
0	176465	3000778.464583235195	6.716259560588
0	176472	3000847.591005194758	38.491802917116
0	176481	3001091.026831483769	20.284768147509
0	176486	3001117.900442752727	26.873611268958
0	176493	3001128.651605755075	2.444910215593
0	176500	3001176.941311980315	5.227753866608
0	176507	3001453.909681469352	11.399414798369
0	176514	3001589.030999422266	7.501085119253
0	176521	3001706.187636859906	7.950547856907
0	176530	3001853.682368876603	77.27119109964
0	176535	3001857.847801826175	4.165432949572
0	176546	3001983.691223340104	102.59694855293
0	176551	3002016.379743593555	32.688520253451
0	176556	3002030.695112457208	14.315368863653
0	176563	3002134.158035809557	35.432593232877
0	176570	3002171.67320872535	23.595383906177
0	176577	3002199.924594357702	11.369532725907
0	176584	3002344.145762423669	35.983133863566
0	176591	3002540.041364801732	12.617325939043
0	176600	3002796.256694300493	65.637323437266
0	176605	3002810.252332766846	13.995638466353
0	176614	3002876.449668537381	20.737647473039
0	176619	3002905.648886938302	29.199218400921
0	176628	3003041.138900631976	42.244114118267
0	176633	3003116.245556758317	75.106656126341
0	176640	3003295.004594895776	0.559911668025
0	176647	3003334.838959028821	1.661043401713
0	176654	3003437.851219877655	42.297207005346
0	176661	3003542.832868690016	20.961304672509
0	176668	3003626.457902362939	6.626799582272
0	176675	3003680.283086671812	7.102163110787
0	176682	3003893.482215197869	5.663368238855
0	176689	3003946.96872043975	10.211639178231
0	176696	3004075.31472249349	39.464175148619
0	176705	3004177.289511904953	45.810690601776
0	176710	3004297.30621890643	120.01670700148
0	176717	3004410.370038651484	107.77528623919
0	176726	3004610.466308535253	22.335495148924
0	176731	3004704.449508634516	93.983200099263
0	176742	3004861.55979245275	81.429969410499
0	176749	3004921.215201100554	59.655408647804
0	176754	3004952.434598875572	31.219397775018
0	176759	3004963.709937584841	11.275338709269
0	176766	3005073.269366998226	46.207489897387
0	176773	3005114.038676238525	0.170333394761
0	176782	3005370.866263888895	145.53780709026
0	176785	3005370.910102233921	0.043838345026
0	176794	3005455.064305179182	75.668265780319
0	176803	3005715.19345988342	22.62838206333
0	176808	3005719.225928179775	4.032468296355
0	176821	3005835.104928711392	94.675020629657
0	176826	3005851.931371391728	16.826442680336
0	176831	3005863.533412319939	11.602040928211
0	176836	3005865.82322489901	2.289812579071
0	176845	3005974.715172717899	36.157062388733
0	176856	3006082.483020409327	107.76784769143
0	176861	3006129.061118934971	46.578098525644
0	176868	3006136.293052912646	7.231933977675
0	176873	3006147.29562651469	11.002573602044
0	176878	3006154.081561622683	6.785935107993
0	176885	3006305.05344642241	31.055098707653
0	176892	3006406.38105421344	3.421416714069
0	176903	3006514.20391301809	43.40902142206
0	176908	3006536.857221579326	22.653308561236
0	176913	3006540.056873293288	3.199651713962
0	176920	3006601.588218988458	10.950256511212
0	176927	3006755.348057870102	20.975123516795
0	176934	3006781.222912344131	20.038097515867
0	176943	3006963.066684544759	23.379646406022
0	176949	3007047.174554502361	84.107869957602
0	176964	3007247.944587082283	7.358756661559
0	176969	3007293.519301222896	45.574714140613
0	176974	3007316.449597675651	22.930296452755
0	176981	3007371.704727071049	12.435781783277
0	176988	3007437.925908227628	1.493019660059
0	177015	3007969.607433887973	21.546640381778
0	177022	3008528.059286530052	125.86662855
0	177029	3008598.881438307756	17.281948295627
0	177038	3008737.671019276814	73.844119043567
0	177045	3008754.232353967116	16.561334690302
0	177052	3008800.28134958109	46.048995613974
0	177057	3008825.57807074329	25.2967211622
0	177066	3009159.398217886372	18.003689777376
0	177071	3009177.136564082448	17.738346196076
0	177078	3009234.685493130707	31.794600933099
0	177085	3009754.461244019207	40.341046049481
0	177094	3009881.599356589539	73.294041518461
0	177099	3009965.400840252867	83.801483663328
0	177106	3010015.588065045845	26.436718909219
0	177120	3010548.432000376787	57.793905067747
0	177125	3010559.888033550796	11.456033174009
0	177134	3010678.723205769545	50.304461547534
0	177139	3010681.264781019978	2.541575250433
0	177150	3011113.511051087153	15.463617454552
0	177158	3011943.9930731732	136.21941859174
0	177207	3013493.467223650502	37.452324998878
0	177212	3013508.105208223696	14.637984573194
0	177215	3013508.921938708944	0.816730485248
0	177226	3013542.670682233796	33.748743524852
0	177229	3013544.442230453583	1.771548219787
0	177236	3013568.029265752222	23.587035298639
0	177247	3013707.494362501455	130.96268768155
0	177254	3013720.376799183997	12.882436682542
0	177259	3013728.759189199296	8.382390015299
0	177266	3013744.697250499306	15.93806130001
0	177271	3013756.855353019438	12.158102520132
0	177278	3013952.094001684442	143.26095501456
0	177289	3014060.454838532734	81.21838901734
0	177294	3014116.686657501352	56.231818968618
0	177301	3014131.379009178798	14.692351677446
0	177306	3014170.640538237719	39.261529058921
0	177313	3014358.255419919884	2.705135630841
0	177320	3014363.298283315495	2.580309005343
0	177329	3014466.568301237978	32.429402857293
0	177334	3014476.151889689714	9.583588451736
0	177341	3014625.74430044698	37.797044679384
0	177348	3014888.12032603548	36.230813589086
0	177355	3015006.698135675464	61.279380802843
0	177371	3015764.243058306519	5.951033414965
0	177378	3016018.892851425442	139.76045742688
0	177387	3016109.967114954575	47.099418745072
0	177392	3016219.878362836304	109.91124788173
0	177399	3016293.827116516203	40.673139311789
0	177406	3016355.376570749763	8.539993498574
0	177415	3016633.938339370094	143.2969010225
0	177420	3016641.762964445445	7.824625075351
0	177427	3016875.718294540423	33.89088624858
0	177434	3016891.328205502389	13.191381568207
0	177443	3017251.020425459143	5.973880246693
0	177450	3017392.823596478486	80.12301597168
0	177457	3017556.280196020317	138.81515687501
0	177464	3017615.103080195346	25.236275044468
0	177530	3019501.03917437288	44.47346418306
0	177537	3019537.658367484614	36.619193111734
0	177542	3019564.577040554326	26.918673069712
0	177547	3019586.076490993423	21.499450439097
0	177554	3019624.596557590179	38.520066596756
0	177561	3019639.844802441835	15.248244851656
0	177568	3019654.510415043547	14.665612601712
0	177573	3019663.301086617696	8.790671574149
0	177582	3019877.22476818129	37.042486531757
0	177589	3019991.813333488564	114.58856530727
0	177596	3020073.389131611213	81.575798122649
0	177601	3020078.685744357437	5.296612746224
0	177608	3020139.279314139145	31.64886153473
0	177621	3020313.434191286455	102.44062199057
0	177626	3020345.090686482516	31.656495196061
0	177635	3020504.707074707927	58.996192219043
0	177640	3020584.442109861895	79.735035153968
0	177649	3020698.18801995175	34.466425472327
0	177654	3020703.354679967648	5.166660015898
0	177661	3020773.850558996799	53.720962763306
0	177668	3020995.611883167735	48.002046401157
0	177677	3021600.743683829927	10.742181705147
0	177684	3021610.812515984825	10.068832154898
0	177689	3021611.143401524078	0.330885539253
0	177698	3021960.426032909208	149.27673390798
0	177705	3021996.829004027519	36.402971118311
0	177710	3022047.086644895604	50.257640868085
0	177719	3022097.679572975239	17.200016687513
0	177724	3022104.006111925392	6.326538950153
0	177731	3022436.205561656882	17.957688767543
0	177738	3022513.329944007959	26.348995745611
0	177745	3022598.145176192833	72.736158682444
0	177752	3022848.07297836058	73.727019319681
0	177759	3022899.125968466005	3.422763319788
0	177768	3023070.104293352111	155.80622885015
0	177773	3023109.356322555635	39.252029203524
0	177782	3023311.125990711873	4.244924660069
0	177787	3023313.776608688235	2.650617976362
0	177794	3023512.707871774064	54.150419872504
0	177801	3023589.907770887815	54.701097747342
0	177808	3023826.24672642513	37.293604600559
0	177816	3024072.024697183635	118.10372569856
0	177824	3024157.935167722416	7.612599633209
0	177833	3024337.802950981397	57.779867423382
0	177838	3024381.786287541976	43.983336560579
0	177845	3024516.030261359142	15.51500471003
0	177852	3024551.807163480788	24.622469317425
0	177859	3024729.58607362291	23.826202033848
0	177868	3024871.768692200674	21.156617639181
0	177873	3024933.440749237595	61.672057036921
0	177882	3025572.684741452826	46.940518242418
0	177887	3025610.70212329896	38.017381846134
0	177894	3025664.384211926564	4.642645775696
0	177901	3026030.96629496955	54.008250335792
0	177908	3026153.323135385879	1.124147958444
0	177915	3026473.823714717269	23.077647539081
0	177922	3026548.912144011149	5.098418674241
0	177929	3026616.059370831945	5.550891303673
0	177936	3026941.379209658721	43.520848026348
0	177945	3026986.413382938693	25.272401500593
0	177950	3027077.611133710087	91.197750771394
0	177957	3027128.508706762367	10.372289057469
0	177964	3027414.983220204237	48.822258165025
0	177973	3027575.856148180158	53.678384443764
0	177980	3027632.8461965398	56.990048359642
0	177985	3027640.138439162745	7.292242622945
0	178205	3032571.888405153702	7.193370410472
0	178210	3032613.446141883872	41.55773673017
0	178215	3032702.930986620009	89.484844736137
0	178220	3032741.241364991503	38.310378371494
0	178229	3032773.503662586064	32.262297594561
0	178234	3032799.306174890976	25.802512304912
0	178241	3032874.07615981505	74.769984924074
0	178246	3032889.018442454655	14.942282639605
0	178251	3033045.79106993544	156.77262748078
0	178256	3033087.049907507182	41.258837571742
0	178261	3033129.617721624449	42.567814117267
0	178267	3033182.502085705835	52.884364081386
0	178272	3033203.641934608389	21.139848902554
0	178279	3033260.806011076713	57.164076468324
0	178284	3033293.477687409316	32.671676332603
0	178289	3033294.148879173147	0.671191763831
0	178294	3033301.187221811687	7.03834263854
0	178303	3033429.282532267529	128.09531045584
0	178308	3033436.821663700547	7.539131433018
0	178313	3033442.703890492739	5.882226792192
0	178318	3033471.325552481158	28.621661988419
0	178323	3033491.850435150228	20.52488266907
0	178328	3033531.122981567608	39.27254641738
0	178333	3033571.794936290086	40.671954722478
0	178338	3033589.066035031492	17.271098741406
0	178345	3033597.754798096737	6.845505466288
0	178354	3033775.629504931964	30.353771706698
0	178361	3033819.814795650513	44.185290718549
0	178366	3033841.001430685698	21.186635035185
0	178373	3033876.515561661445	20.949533318274
0	178380	3034033.755023900232	0.471094827312
0	178389	3034158.323024390614	61.016793361696
0	178396	3034172.935270338391	14.612245947777
0	178403	3034184.472600628398	11.537330290007
0	178408	3034194.66201645979	10.189415831392
0	178415	3034265.088118024208	43.520742559564
0	178422	3034290.992206406155	16.526199607355
0	178429	3034325.481153385967	24.917765787928
0	178436	3034387.711083023477	17.343117404349
0	178443	3034446.390165152757	32.908148234903
0	178450	3034491.885092833034	16.545091076257
0	178457	3034855.242116815575	0.722943044915
0	178464	3035039.841909333297	22.09320701282
0	178471	3035206.334068902155	2.877704418705
0	178478	3035241.33348892708	7.362352039454
0	178485	3035296.571832945757	19.18715983639
0	178492	3035370.444506633862	22.398468758575
0	178499	3035434.734050901668	25.953337007254
0	178510	3035614.304757194713	103.79308803289
0	178517	3035728.546486724854	114.24172953014
0	178524	3035782.85259648962	54.306109764766
0	178529	3035805.863390880323	23.010794390703
0	178534	3035881.70653723484	75.843146354517
0	178541	3036085.929691028212	12.727463750229
0	178550	3036194.518096000712	56.399133421917
0	178555	3036288.057510566165	93.539414565453
0	178562	3036412.435433898201	55.711335516219
0	178571	3036925.883793189991	35.756839290588
0	178576	3036946.977726770121	21.09393358013
0	178583	3037046.293127723034	38.820719292288
0	178590	3037182.12250984188	7.227479943245
0	178601	3037404.944662332495	27.590755674223
0	178606	3037417.370737904968	12.426075572473
0	178613	3037433.880089712976	16.509351808008
0	178620	3037455.679934257203	21.799844544227
0	178625	3037556.503255906504	100.8233216493
0	178632	3037594.031511605836	3.098485054632
0	178639	3037751.664685917607	115.72759868018
0	178646	3038290.337524516324	39.541334880956
0	178653	3038414.041885998626	0.107882778684
0	178660	3038662.769244195763	74.111927363337
0	178669	3038738.668194297361	66.089096717621
0	178676	3038755.368113587066	16.699919289705
0	178681	3038776.785388324082	21.417274737016
0	178688	3038835.474432992363	9.927643785349
0	178695	3038860.095712460652	9.316484255078
0	178704	3038974.904199556932	66.02205366459
0	178709	3038983.710715243417	8.806515686485
0	178716	3039046.323381387962	3.369426727406
0	178723	3039119.511990221865	0.725621345849
0	178734	3039195.412143835678	64.688121269687
0	178739	3039233.38357204064	37.971428204962
0	178746	3039257.16443616971	23.78086412907
0	178751	3039305.593983295652	48.429547125942
0	178758	3039511.269002213742	47.56514568657
0	178765	3039574.512059044043	42.184009135492
0	178772	3039653.908633136852	23.311288399734
0	178781	3039823.135486921509	102.0457038135
0	178788	3039914.716562720649	91.58107579914
0	178795	3039936.038147673905	21.321584953256
0	178800	3039953.073163727916	17.035016054011
0	178807	3040250.858290090407	44.364875661096
0	178814	3040340.308774298198	15.071667894307
0	178821	3040383.964282975738	4.129947249117
0	178828	3040400.41588574426	11.985917063579
0	178835	3040445.660757718161	36.369992155723
0	178842	3040453.866993779037	6.725535703901
0	178851	3040659.054999947472	120.08061013119
0	178856	3040672.665904401044	13.610904453572
0	178863	3040690.319091442667	1.547555405491
0	178872	3040799.115887678814	35.229660686025
0	178877	3040846.815094957452	47.699207278638
0	178884	3040923.839368103951	5.600202841754
0	178891	3041051.463016761843	33.36628447203
0	178898	3041355.724077310253	86.921379285481
0	178905	3041518.181804557988	20.060821048008
0	178912	3041873.190668933309	77.367488136368
0	178919	3042147.597760319116	122.09578448365
0	179154	3049054.870070010004	96.87384286715
0	179161	3049095.191179369236	40.321109359232
0	179166	3049122.146437279847	26.955257910611
0	179169	3049123.244705912805	1.098268632958
0	179176	3049125.135588082116	1.890882169311
0	179181	3049197.225972112045	72.090384029929
0	179186	3049272.973027448539	75.747055336494
0	179191	3049356.815441298363	83.842413849824
0	179196	3049359.380883238869	2.565441940506
0	179201	3049446.440737781274	87.059854542405
0	179208	3049479.66632935039	33.225591569116
0	179215	3049532.938359045615	53.272029695225
0	179255	3050558.389844800618	125.29407734573
0	179262	3050593.727130889209	35.337286088591
0	179267	3050616.050395490821	22.323264601612
0	179272	3050660.295415302394	44.245019811573
0	179277	3050695.576011039374	35.28059573698
0	179282	3050751.469176165164	55.89316512579
0	179287	3050787.9589057812	36.489729616036
0	179292	3050802.881005048371	14.922099267171
0	179297	3050810.421449782401	7.54044473403
0	179304	3050895.18401270609	84.762562923689
0	179307	3050895.647361749985	0.463349043895
0	179316	3050908.910326618782	3.527527927309
0	179323	3050954.91048151612	2.115608927107
0	179330	3051034.26344915773	6.382801871161
0	179341	3051599.216988127959	44.088677555807
0	179348	3051698.740461979495	4.021216491642
0	179357	3052107.073793402669	16.452156294291
0	179362	3052200.51330627212	93.439512869451
0	179369	3052329.294772574212	90.9365556838
0	179376	3052530.571961056421	0.793084292103
0	179383	3052592.984601821431	54.943032609651
0	179390	3052806.55283729856	13.818085540719
0	179397	3053083.753365191226	52.207923618652
0	179404	3053225.90395522723	28.393125512767
0	179411	3053718.387328099789	60.997284118372
0	179420	3053802.357340143066	56.011373198638
0	179425	3053818.440878959394	16.083538816328
0	179432	3054043.209714570887	128.35926508522
0	179439	3054420.077331081207	49.838045310104
0	179446	3054461.775225040469	3.957560391153
0	179455	3054638.50494862536	66.334109471105
0	179462	3054684.810559725352	46.305611099992
0	179469	3054743.144809004663	58.334249279311
0	179474	3054758.629989579113	15.48518057445
0	179481	3054868.276033388123	59.145216137856
0	179490	3055039.804834982656	39.264317351277
0	179495	3055127.00535066596	87.200515683304
0	179502	3055167.36027136655	2.312013353643
0	179509	3055298.831133347905	19.573913364232
0	179520	3055490.490958454356	183.41831861683
0	179529	3055690.505658148005	200.01469969365
0	179534	3055726.049424871586	35.543766723581
0	179539	3055728.054473789563	2.005048917977
0	179544	3055794.007623742627	65.953149953064
0	179553	3055977.846677011852	41.612611779254
0	179558	3055978.814089972651	0.967412960799
0	179565	3056232.400377915989	25.438020497825
0	179572	3056326.622881130947	4.155007301484
0	179579	3056436.47923705318	75.16441764898
0	179586	3056471.920968297659	7.386454480006
0	179593	3056596.999167155702	23.929310478125
0	179600	3056710.244170673857	105.10275542476
0	179607	3056755.63913094867	2.543100180431
0	179614	3056893.603340652052	12.899094866029
0	179621	3056960.074784889072	25.8825468068
0	179628	3057128.210209551165	79.460997997226
0	179635	3057175.017786578614	40.912387847036
0	179642	3057418.381819796467	2.932074724541
0	179651	3057659.447717617195	31.972283972945
0	179662	3057777.387667073378	98.46955799482
0	179669	3057860.358041540775	82.970374467397
0	179678	3057955.490787972104	95.132746431329
0	179683	3057969.191548315117	13.700760343013
0	179688	3057990.570639403228	21.379091088111
0	179691	3057991.352748784354	0.782109381126
0	179702	3058073.108137778851	80.392228679432
0	179707	3058076.287965850215	3.179828071364
0	179718	3058969.848597141852	135.43783005053
0	179723	3058975.731502489585	5.882905347733
0	179728	3058986.686223520572	10.954721030987
0	179735	3059115.57498796958	25.666872408408
0	179742	3059177.815640368083	13.514958465249
0	179749	3059555.576083935157	37.201192622574
0	179758	3059949.901961001345	6.000508142831
0	179765	3060017.778914621339	67.876953619994
0	179770	3060064.82527250196	47.046357880621
0	179777	3060263.584222130177	41.169247789524
0	179784	3060450.984121775165	11.644365256599
0	179791	3060616.98098916312	53.399546486055
0	179798	3060743.994881775421	42.740632347551
0	179805	3060790.31720039929	1.716342665183
0	179812	3060924.381175168673	10.068040733205
0	179819	3061112.030731005161	53.296338328995
0	179826	3061261.508895078587	54.879835920759
0	179833	3061454.927780862649	92.050883551188
0	179842	3061665.26645296672	175.46636383416
0	179847	3061674.708269904472	9.441816937752
0	179881	3062495.047051208039	109.54060569067
0	179892	3062628.001444726386	132.95439351835
0	179897	3062710.496506826443	82.495062100057
0	179904	3062803.021894687012	28.905412342982
0	179911	3063063.862273598627	0.857848777593
0	179922	3063370.130777159689	244.89976729139
0	179927	3063412.878108000814	42.747330841125
0	179934	3063497.949044580274	85.07093657946
0	179939	3063567.996565956315	70.047521376041
0	179946	3063743.387718692242	87.1085552215
0	179953	3063912.792864108717	1.967788067309
0	179960	3063992.648516286542	27.06869727116
0	179967	3064140.625884388623	32.306413321958
0	179974	3064189.552708705806	20.736109786854
0	179981	3064243.931178640038	54.026976873032
0	179988	3064384.288705239536	80.365035866126
0	179995	3064449.59905745351	26.330690658798
0	180002	3064562.961939640123	13.689100814619
0	180009	3064980.575581047613	60.641372618424
0	180018	3065006.200834246196	15.084523088607
0	180023	3065022.795173076474	16.594338830278
0	180030	3065117.77562060206	7.935214272881
0	180037	3065154.0903718215	14.929620634083
0	180048	3065451.265055865595	267.4066938052
0	180053	3065454.833025284641	3.567969419046
0	180058	3065459.605469849164	4.772444564523
0	180069	3065723.270640643275	100.15494004065
0	180078	3065807.931510254219	84.660869610944
0	180083	3065812.794766007874	4.863255753655
0	180090	3065960.30912628735	147.51436027948
0	180095	3065969.667089435575	9.357963148225
0	180100	3065983.171016865485	13.50392742991
0	180107	3066166.259542523971	11.573295030903
0	180114	3066190.374358644983	1.108805510385
0	180121	3066256.844424084947	15.991370839198
0	180128	3066628.499043147539	52.588722112728
0	180137	3066728.649182684194	52.264863400696
0	180144	3066767.008890613318	38.359707929124
0	180147	3066767.082990447011	0.074099833693
0	180156	3066805.752861033291	26.1947935122
0	180209	3068461.899118605344	40.851181553415
0	180223	3068612.021821853488	150.12270324814
0	180228	3068616.163878010402	4.142056156914
0	180233	3068625.612346444041	9.448468433639
0	180238	3068662.348359098021	36.73601265398
0	180243	3068669.841354872665	7.492995774644
0	180248	3068675.992279866081	6.150924993416
0	180253	3068702.341212769025	26.348932902944
0	180258	3068746.439458519629	44.098245750604
0	180266	3068871.811328627189	125.37187010756
0	180271	3068974.8932060721	103.08187744491
0	180276	3068983.105519091268	8.212313019168
0	180281	3068993.549320626071	10.443801534803
0	180286	3069001.549532952691	8.00021232662
0	180291	3069024.579961895156	23.030428942465
0	180298	3069100.091633879891	24.709999814027
0	180305	3069119.055591944754	9.784628904769
0	180314	3069172.915719131681	22.935264233192
0	180317	3069173.161288908131	0.24556977645
0	180326	3069465.704543659329	23.298119642941
0	180333	3069632.465422512559	9.118745065903
0	180340	3070262.883183634426	71.739947206289
0	180347	3070393.674445955254	7.793109542308
0	180354	3070667.364258478798	55.360207945241
0	180361	3070679.412845049737	3.829895196987
0	180368	3070712.516514706451	10.749627046045
0	180375	3070836.441836879727	64.170529116932
0	180382	3070913.637870886896	67.645041275503
0	180389	3070961.930857627121	31.678285181539
0	180396	3071020.193635984058	7.785711069695
0	180403	3071503.570047883629	8.510823747704
0	180412	3071674.791076543765	36.533080385249
0	180421	3071847.905288375116	173.11421183135
0	180426	3071860.161082411899	12.255794036783
0	180431	3071873.897380986807	13.736298574908
0	180449	3072450.836216679739	33.347798325583
0	180454	3072479.356993856809	28.52077717707
0	180459	3072534.734529801919	55.37753594511
0	180464	3072617.776521207961	83.041991406042
0	180473	3072730.076721819658	29.052519901728
0	180482	3072744.558420504611	14.481698684953
0	180489	3072777.572989199436	3.220835034026
0	180500	3072922.19399077945	50.350366889935
0	180505	3072947.336277208836	25.142286429386
0	180510	3072988.724500913685	41.388223704849
0	180517	3073120.642923288556	15.76895966191
0	180524	3073199.771479249042	9.257040730419
0	180531	3073364.082485056594	44.880806036862
0	180538	3073483.898213420448	28.843335813552
0	180545	3073572.476006381443	0.056219222957
0	180553	3073728.184757268434	67.470774680416
0	180604	3074973.321905903229	131.06063557182
0	180613	3075056.31808232435	82.996176421121
0	180620	3075107.090303322523	50.772220998173
0	180627	3075148.648099275688	41.557795953165
0	180632	3075171.011237233968	22.36313795828
0	180637	3075214.748536807582	43.737299573614
0	180644	3075368.98850654926	154.23996974168
0	180649	3075384.337900173804	15.349393624544
0	180654	3075395.128272164941	10.790371991137
0	180659	3075463.932240832101	68.80396866716
0	180664	3075523.324208485624	59.391967653523
0	180669	3075525.25678777965	1.932579294026
0	180674	3075551.21188855682	25.95510077717
0	180679	3075575.325663944037	24.113775387217
0	180688	3075737.018382981248	101.5049399619
0	180693	3075745.750456472529	8.732073491281
0	180704	3075927.761628378918	49.509366010866
0	180709	3075934.453824984901	6.692196605983
0	180716	3075990.360046989334	55.906222004433
0	180721	3076006.342052284939	15.982005295605
0	180728	3076443.626750913386	85.751007872444
0	180737	3076628.635186401454	109.07463142885
0	180742	3076631.477126779843	2.841940378389
0	180749	3076704.395108637178	55.690624319801
0	180756	3076843.295193724342	0.663034215043
0	180763	3077021.460952920443	49.336355870222
0	180780	3077237.188472150609	141.9358721767
0	180861	3078574.877895797996	8.650319993045
0	180866	3078577.766517059061	2.888621261065
0	180871	3078603.005727289026	25.239210229965
0	180878	3078764.707207107252	11.047546743512
0	180889	3078862.638697076201	1.497201712597
0	180896	3078963.396518064255	86.946624797013
0	180903	3079115.703023908401	39.417455486991
0	180916	3079310.329793597778	55.29826177358
0	180927	3079384.580052899877	74.250259302099
0	180932	3079388.04933587022	3.469282970343
0	180937	3079399.550384881428	11.501049011208
0	180944	3079449.139540744453	49.589155863025
0	180949	3079488.295537070075	39.155996325622
0	180954	3079521.884248091557	33.588711021482
0	180959	3079534.530375567254	12.646127475697
0	180966	3079631.990529047022	6.97031737452
0	180977	3079791.943130942672	52.898519538683
0	180982	3079794.4395370284	2.496406085728
0	180989	3079810.774960631359	16.335423602959
0	180996	3079897.82813143754	87.053170806181
0	181001	3079931.630298646459	33.802167208919
0	181010	3080072.380030240803	57.845375865768
0	181019	3080128.109580118566	55.729549877763
0	181024	3080152.167946023527	24.058365904961
0	181029	3080156.794105379042	4.626159355515
0	181036	3080246.384387367494	0.867317610316
0	181045	3080345.226737007658	89.91864884866
0	181050	3080361.74007882042	16.513341812762
0	181057	3080450.807391041812	40.995768656204
0	181064	3080661.058766301926	35.723383672768
0	181071	3080687.022540835924	2.794532757612
0	181080	3080873.076121362589	34.352231459024
0	181085	3080889.296513484369	16.22039212178
0	181094	3080926.37586719328	30.489197111309
0	181103	3081022.92591311864	96.55004592536
0	181108	3081031.691247730155	8.765334611515
0	181115	3081141.075377641201	109.38412991105
0	181120	3081150.704652325764	9.629274684563
0	181131	3081436.206583446571	123.05960077417
0	181136	3081437.620027574712	1.413444128141
0	181143	3081504.478384712567	66.858357137855
0	181148	3081530.2538410587	25.775456346133
0	181155	3081576.961668483279	7.680928666239
0	181162	3081592.247519301347	13.214173684292
0	181169	3081672.045147696455	73.484565925406
0	181176	3081770.057546159265	28.189592023161
0	181185	3081873.237756827125	73.696929737544
0	181190	3081905.551704669608	32.313947842483
0	181197	3081951.0757207245	41.191494027887
0	181206	3082025.011074724371	44.395826771687
0	181213	3082086.629282334036	61.618207609665
0	181218	3082092.146720870314	5.517438536278
0	181225	3082121.053234675201	21.463877849822
0	181232	3082365.843846405228	34.722540848656
0	181241	3082379.545854279162	7.649060734716
0	181246	3082381.838136516912	2.29228223775
0	181253	3082416.931329634738	1.655259776583
0	181260	3082613.963993996508	20.498710888253
0	181267	3082727.948756441884	67.60889879873
0	181274	3082890.135527963276	59.712154608448
0	181285	3083088.175894844509	124.05064562181
0	181290	3083174.431852698237	86.255957853728
0	181295	3083190.80383108944	16.371978391203