version 2
run Simulations-30-20191218-11:09:17-65753
attr configname Simulations
attr datetime 20191218-11:09:17
attr experiment Simulations
attr inifile omnetpp.ini
attr iterationvars "$seed=25, $0=3000"
attr iterationvarsf seed=25,3000-
attr measurement "$seed=25, $0=3000"
attr network WifiCelNetPassiveQueue
attr processid 65753
attr repetition 0
attr replication #0
attr resultdir results/Simulations/omnet
attr runnumber 30
attr seedset 25
itervar seed 25
param **.numJobs 10000
param *.OFFLOAD.deadline exponential(3000s)
param *.source.interArrivalTime exponential(120s)
param *.WIFI.serviceTime exponential(40s)
param *.CELL.serviceTime exponential(400s)
param *.OFFLOAD.switchToWi exponential(1524s)
param *.OFFLOAD.switchToCel exponential(3120s)
param *.LOCAL.serviceTime exponential(5s)
param *.REMOTE.serviceTime exponential(1s)

vector 0 WifiCelNetPassiveQueue.WIFI serviceTime:vector ETV
attr interpolationmode none
attr title "wifi Service, vector"
attr unit s
vector 1 WifiCelNetPassiveQueue.WIFI responseTime:vector ETV
attr interpolationmode none
attr title "Response Time, vector"
attr unit s
vector 2 WifiCelNetPassiveQueue.REMOTE serviceTime:vector ETV
attr interpolationmode none
attr title "wifi Service, vector"
attr unit s
vector 3 WifiCelNetPassiveQueue.REMOTE responseTime:vector ETV
attr interpolationmode none
attr title "Response Time, vector"
attr unit s
vector 4 WifiCelNetPassiveQueue.sink lifeTime:vector ETV
attr interpolationmode none
attr title "lifetime of arrived jobs, vector"
attr unit s
vector 5 WifiCelNetPassiveQueue.OFFLOAD queueLength:vector ETV
attr interpolationmode sample-hold
attr title "queue length, vector"
vector 6 WifiCelNetPassiveQueue.OFFLOAD storeCelTime:vector ETV
attr interpolationmode none
attr title "Time in Cell, vector"
attr unit s
vector 7 WifiCelNetPassiveQueue.CELL serviceTime:vector ETV
attr interpolationmode none
attr title "wifi Service, vector"
attr unit s
vector 8 WifiCelNetPassiveQueue.CELL responseTime:vector ETV
attr interpolationmode none
attr title "Response Time, vector"
attr unit s
vector 9 WifiCelNetPassiveQueue.OFFLOAD storeDeadline:vector ETV
attr interpolationmode none
attr title "deadline, vector"
attr unit s
vector 10 WifiCelNetPassiveQueue.OFFLOAD storeWifiTime:vector ETV
attr interpolationmode none
attr title "Time in Wifi, vector"
attr unit s
vector 11 WifiCelNetPassiveQueue.LOCAL queueLength:vector ETV
attr interpolationmode sample-hold
attr title "queue length, vector"
vector 12 WifiCelNetPassiveQueue.LOCAL serviceTime:vector ETV
attr interpolationmode none
attr title "wifi Service, vector"
attr unit s
vector 13 WifiCelNetPassiveQueue.LOCAL responseTime:vector ETV
attr interpolationmode none
attr title "Response Time, vector"
attr unit s
vector 14 WifiCelNetPassiveQueue.REMOTE queueLength:vector ETV
attr interpolationmode sample-hold
attr title "queue length, vector"
0	175662	3000114.815953619934	28.550273499495
0	175669	3000163.251792560574	20.188778637599
0	175676	3000433.860786716741	24.499475743179
0	175683	3000504.800186846179	30.547987028098
0	175690	3000624.617540263091	0.573194446176
0	175697	3000708.817051237505	11.563323593814
0	175704	3001000.77682509165	24.560660998301
0	175711	3001034.864603768003	10.043183834426
0	175720	3001181.818264009377	89.153519607597
0	175725	3001203.4693029947	21.651038985323
0	175732	3001489.337234990973	8.626821243191
0	175739	3001491.705605131202	0.535394641182
0	175746	3001520.468332098528	12.447995012547
0	175753	3002023.468193785555	2.141469523716
0	175762	3002080.326441071724	23.43930052004
0	175767	3002123.225099186676	42.898658114952
0	175836	3003995.469408573724	4.143623342443
0	175841	3004005.437112460271	9.967703886547
0	175848	3004098.879709509985	93.442597049714
0	175853	3004117.356856285431	18.477146775446
0	175858	3004120.653958942834	3.297102657403
0	175863	3004132.211376998279	11.557418055445
0	175876	3004521.174696402539	51.704482771532
0	175881	3004530.292030499965	9.117334097426
0	175922	3005438.244452204919	23.267265468517
0	175934	3005517.0084020081	78.763949803181
0	175941	3005581.284990840122	64.276588832022
0	175948	3005675.898249694074	94.613258853952
0	175953	3005746.024836454589	70.126586760515
0	175960	3005864.952572879941	118.92773642535
0	175965	3005869.399549806791	4.44697692685
0	175972	3005918.544837179926	49.145287373135
0	175979	3006014.811531561534	96.266694381608
0	175991	3006348.312373474615	40.77805695292
0	175996	3006350.099928714767	1.787555240152
0	176001	3006360.201323078389	10.101394363622
0	176010	3006392.335405881792	32.134082803403
0	176017	3006530.962688898732	32.035436397123
0	176026	3006822.344488696113	56.374233194026
0	176033	3006867.275336771474	44.930848075361
0	176038	3006872.951550233092	5.676213461618
0	176049	3007027.119711700667	52.564174049331
0	176054	3007084.382664967027	57.26295326636
0	176059	3007105.301493098779	20.918828131752
0	176068	3007228.297131407546	65.417341148295
0	176075	3007251.017486558754	22.720355151208
0	176080	3007266.437151813395	15.419665254641
0	176087	3007321.176392658156	10.30489643094
0	176096	3007548.233756233882	65.629099629307
0	176101	3007587.68733759605	39.453581362168
0	176108	3007781.563185826469	0.935640027146
0	176119	3008024.199836460712	24.854957156578
0	176124	3008038.625987074468	14.426150613756
0	176129	3008066.813316097335	28.187329022867
0	176136	3008219.133057246899	40.648212434509
0	176147	3008279.677237003387	26.9591001647
0	176152	3008318.697181863595	39.019944860208
0	176157	3008334.945093037415	16.24791117382
0	176164	3008547.548571863642	0.250622439349
0	176171	3008749.336026087319	32.928794547795
0	176180	3008909.777433597243	66.28478874116
0	176185	3008920.976711319116	11.199277721873
0	176194	3009406.641165133479	65.864710504048
0	176201	3009468.094753275683	61.453588142204
0	176206	3009477.623963644069	9.529210368386
0	176213	3009695.963820400733	30.954649304237
0	176220	3009774.952148140888	8.022586222958
0	176229	3009806.64451279347	19.194343548864
0	176234	3009911.554040341478	104.90952754801
0	176241	3010011.845790974442	2.244656491582
0	176248	3010095.026133736752	6.554518065307
0	176255	3010229.793977121582	7.998512182267
0	176262	3010373.796367920685	30.271759846801
0	176269	3010423.905885883914	4.901384201023
0	176276	3010515.248927172993	1.245561820659
0	176283	3010998.207212941003	25.282496393314
0	176290	3011187.958709986694	30.848601806046
0	176297	3011333.273374918719	12.862793556568
0	176304	3011397.282794057656	13.3418931062
0	176313	3011483.980270582784	29.275693944976
0	176322	3011560.710436769321	76.730166186537
0	176327	3011605.655047302633	44.944610533312
0	176332	3011692.096909364475	86.441862061842
0	176339	3011904.844423831057	70.098947745288
0	176377	3012874.855109829663	51.076529371725
0	176382	3012884.295179881733	9.44007005207
0	176387	3012906.311212711966	22.016032830233
0	176394	3012953.014663994983	46.703451283017
0	176399	3012993.735050933921	40.720386938938
0	176408	3013073.330624609134	52.585543570051
0	176413	3013138.012657475585	64.682032866451
0	176426	3013423.737168268724	64.186989136394
0	176431	3013442.62538866623	18.888220397506
0	176438	3013613.489944509962	36.24179127348
0	176447	3013776.775080472333	47.196148554538
0	176452	3013805.149369730312	28.374289257979
0	176459	3013958.458080907434	41.887966362338
0	176470	3014039.482433453066	51.87065845611
0	176475	3014073.123291358738	33.640857905672
0	176484	3014134.772574616605	61.649283257867
0	176489	3014141.489272371079	6.716697754474
0	176494	3014149.816256822064	8.326984450985
0	176501	3014302.5928684765	38.393306469789
0	176512	3014825.937095905562	19.116663102029
0	176517	3014872.15794187016	46.220845964598
0	176524	3014910.256670427572	38.098728557412
0	176529	3014926.663120097008	16.406449669436
0	176536	3015024.684589857517	78.066837492833
0	176543	3015203.646216419511	33.296275622329
0	176550	3015282.978463777471	14.88943427738
0	176559	3015348.162079882542	37.538709186881
0	176564	3015350.212685138278	2.050605255736
0	176571	3015472.094059240895	0.334224191389
0	176580	3015510.813284407287	25.806313739568
0	176585	3015547.776489946249	36.963205538962
0	176592	3015694.125967528614	33.557996070349
0	176599	3015756.470473579277	12.442192321448
0	176610	3016004.567978732771	153.7328319646
0	176615	3016014.361784581007	9.793805848236
0	176620	3016051.019284748258	36.657500167251
0	176627	3016094.88596326346	27.357350702944
0	176634	3016326.784589389079	2.034122442395
0	176641	3016350.078767809207	9.441545789055
0	176648	3016388.242135499208	12.642894650603
0	176659	3016470.194082895952	36.699467276611
0	176668	3016502.20120639382	32.007123497868
0	176675	3016587.554686902635	85.353480508815
0	176682	3016613.354734595465	25.80004769283
0	176689	3016690.415998893049	77.061264297584
0	176698	3016721.145183611755	30.729184718706
0	176703	3016741.598591459046	20.453407847291
0	176708	3016766.744847410613	25.146255951567
0	176715	3016880.042754046165	113.29790663555
0	176720	3016914.840687427534	34.797933381369
0	176725	3016932.443916591453	17.603229163919
0	176741	3017177.070344473557	7.490366601568
0	176748	3017241.574109650635	23.33706517374
0	176755	3017358.194065355704	2.196721990855
0	176766	3017560.162513763681	139.81107046088
0	176773	3017639.65319656495	79.490682801269
0	176782	3017740.510361526637	100.85716496169
0	176789	3017747.718595493828	7.208233967191
0	176794	3017775.151116364263	27.432520870435
0	176799	3017822.137662963005	46.986546598742
0	176804	3017839.621474095617	17.483811132612
0	176811	3018052.034670101693	0.152886439798
0	176818	3018188.900013515569	27.268759150218
0	176825	3018214.501774019152	5.603101137857
0	176832	3018289.848864673559	25.310378033504
0	176839	3018493.922755748009	48.001369975431
0	176846	3018549.695648442402	39.942093388294
0	176853	3018601.989457670676	28.804772548924
0	176864	3018792.124503377235	66.152102171291
0	176871	3018802.882390793157	10.757887415922
0	176876	3018822.939608826609	20.057218033452
0	176881	3018853.47672142878	30.537112602171
0	176888	3018942.800104215681	76.188850660868
0	176897	3018968.84579351875	8.440148690078
0	176904	3018995.806337680125	26.960544161375
0	176909	3019058.865329062799	63.058991382674
0	176916	3019122.502125957229	56.332007744241
0	176925	3019240.808764967898	98.18842862098
0	176930	3019244.299035197001	3.490270229103
0	176937	3019323.525357523042	4.047984625858
0	176944	3019348.162008372317	12.351077742538
0	176957	3019580.321615792804	156.1800531662
0	176962	3019584.630421088208	4.308805295404
0	176967	3019585.908538046576	1.278116958368
0	176972	3019607.798480529589	21.889942483013
0	176979	3019640.201933610186	21.024419670377
0	176986	3019763.988280728287	17.367297976756
0	176995	3019791.011990845869	20.608325794389
0	177000	3019802.184926601241	11.172935755372
0	177007	3020003.284545431121	158.9955615512
0	177016	3020114.90000109239	45.586643186256
0	177021	3020121.755663385496	6.855662293106
0	177030	3020232.114935741817	95.487907252349
0	177035	3020260.312217499536	28.197281757719
0	177042	3020376.946741128154	45.291305266964
0	177049	3020423.083861559894	5.707945230487
0	177056	3020428.738740373124	4.467701521842
0	177063	3020558.614377237504	10.56400637201
0	177070	3020761.176267441989	48.526492469105
0	177077	3020956.265746252642	58.366998292661
0	177086	3021075.039112107908	45.949264009224
0	177091	3021100.318461265427	25.279349157519
0	177098	3021168.738535579516	23.850522662747
0	177105	3021447.010816880297	31.573816656628
0	177112	3021673.505912074401	3.271778342906
0	177119	3021732.223980639427	16.514605996077
0	177126	3021876.741595369519	5.168366338875
0	177133	3021946.945280280433	20.646615215223
0	177140	3021984.922074123939	16.715314423388
0	177168	3023075.384413874863	0.88900627354
0	177175	3023095.332021191932	19.947607317069
0	177180	3023101.71009213906	6.378070947128
0	177187	3023155.870079157025	54.159987017965
0	177192	3023160.727370853736	4.857291696711
0	177203	3023320.291984954227	14.129465770396
0	177210	3023480.374005046861	56.153177648685
0	177217	3023592.754459518898	16.251431302563
0	177226	3023765.215663157661	25.581584623971
0	177233	3023922.848178583045	157.63251542538
0	177238	3023958.015888093432	35.167709510387
0	177247	3024188.06931659018	90.766500624441
0	177252	3024229.470230019392	41.400913429212
0	177259	3024268.744596990128	29.967985761633
0	177266	3024313.842314582731	8.429181712955
0	177275	3024475.115158563162	49.01651754835
0	177282	3024592.416425081676	117.30126651851
0	177287	3024677.335912836139	84.919487754463
0	177294	3025001.710576557282	48.518689008464
0	177303	3025193.760377072885	84.239149246665
0	177308	3025218.340584202172	24.580207129287
0	177319	3025642.920919732401	46.821118465779
0	177336	3026161.566828153215	116.20869639509
0	177343	3026263.109326546122	101.54249839291
0	177352	3026302.69127876763	39.581952221508
0	177357	3026389.007857160966	86.316578393336
0	177362	3026409.265482686316	20.25762552535
0	177373	3026446.490773849901	8.339358117368
0	177380	3026525.45115816184	3.244750083205
0	177387	3026597.837694008593	41.797724467935
0	177396	3026682.102104338365	45.801073346352
0	177401	3026774.459409014586	92.357304676221
0	177408	3026894.251721877844	14.328879594093
0	177417	3026992.332995877142	25.350109486407
0	177422	3027045.025280475594	52.692284598452
0	177431	3027113.025616499288	19.1067354412
0	177436	3027149.641648178837	36.616031679549
0	177443	3027277.779270834148	115.75428345945
0	177450	3027338.736212956578	12.824471465044
0	177457	3027354.719813324999	13.724022058129
0	177464	3027424.067317148262	4.834094012794
0	177471	3027460.892772997792	26.675584340738
0	177478	3027553.720795150333	6.821349847251
0	177485	3027579.918861353012	0.920372024861
0	177496	3027738.027318060877	77.130469086136
0	177503	3027834.578458744026	96.551140683149
0	177512	3027922.887103202415	88.308644458389
0	177517	3027931.628600385851	8.741497183436
0	177522	3027973.755283287487	42.126682901636
0	177527	3028089.401052717504	115.64576943002
0	177534	3028169.937228485269	16.169991592032
0	177541	3028190.51276033757	7.116825416366
0	177548	3028539.634479873057	170.94397417204
0	177555	3028652.21518810035	26.797625495729
0	177562	3028804.616681515294	68.716594940956
0	177569	3028843.15979880198	5.982577470251
0	177578	3028872.070879351105	10.871230364906
0	177583	3028924.07278574356	52.001906392455
0	177590	3029299.535346875426	7.988345356957
0	177597	3029374.155644020211	6.88422642711
0	177606	3029464.124814444467	12.605077855656
0	177611	3029466.50066934187	2.375854897403
0	177618	3029995.912877506915	77.242651692061
0	177636	3030427.580275387118	64.670427646319
0	177641	3030477.705637943776	50.125362556658
0	177646	3030545.19104953983	67.485411596054
0	177655	3030578.943195254779	33.752145714949
0	177662	3030832.280963566121	19.440389088148
0	177669	3030853.544920427689	16.878746045751
0	177676	3031263.261228940237	0.935848108896
0	177684	3031405.107127307542	10.826597528924
0	177763	3032909.806663589706	38.902391566662
0	177768	3032960.713494961953	50.906831372247
0	177773	3032968.66404281886	7.950547856907
0	177779	3032982.104315631998	13.440272813138
0	177786	3033003.55840848893	21.454092856932
0	177793	3033067.974734286531	64.416325797601
0	177800	3033083.974932238574	16.000197952043
0	177805	3033116.663452492025	32.688520253451
0	177810	3033130.978821355678	14.315368863653
0	177815	3033147.429615436509	16.450794080831
0	177822	3033204.367260788082	56.937645351573
0	177827	3033205.341220140055	0.973959351973
0	177832	3033216.710752865962	11.369532725907
0	177839	3033289.797889633491	73.087136767529
0	177846	3033357.529666967004	67.731777333513
0	177851	3033375.054390313612	17.524723346608
0	177858	3033399.227217034043	24.172826720431
0	177869	3033583.759610092083	184.53239305804
0	177874	3033612.958828493004	29.199218400921
0	177879	3033620.467683029071	7.508854536067
0	177886	3033711.475460731018	91.007777701947
0	177895	3033738.533474672456	27.058013941438
0	177902	3033796.290445128613	20.792032415067
0	177911	3033905.990483968528	42.105850381733
0	177916	3033938.643663556248	32.65317958772
0	177923	3034017.152946256346	17.783273593453
0	177934	3034287.400320111763	71.545974465996
0	177939	3034293.063688350618	5.663368238855
0	177944	3034326.094843711735	33.031155361117
0	177951	3034460.009385751544	31.876091319435
0	177958	3034486.51383903599	3.46212793124
0	177965	3034535.272436505155	8.56335076444
0	177974	3034782.617320047455	95.178686991346
0	177979	3034787.698443077618	5.081123030163
0	177986	3035104.011582535871	10.559881313321
0	177993	3035273.255084745139	3.047742957156
0	178016	3035808.384398293582	0.170333394761
0	178021	3035826.132465652551	17.748067358969
0	178030	3035859.740259160324	33.607793507773
0	178039	3036007.332047417079	104.38967947374
0	178044	3036013.323464810525	5.991417393446
0	178051	3036214.401407296958	23.929580466214
0	178058	3036231.82117824394	11.458773331888
0	178067	3036251.369904157574	14.653246458216
0	178072	3036268.19634683791	16.826442680336
0	178079	3036364.80979254361	8.300991967133
0	178086	3036393.183350285138	1.868426924029
0	178093	3036460.423928381916	5.378809054666
0	178100	3036499.439693624732	1.886137374906
0	178107	3036593.48161709439	46.578098525644
0	178116	3036743.462758824384	48.087646717577
0	178121	3036763.465627969617	20.002869145233
0	178130	3036846.55129222196	42.987096594871
0	178135	3036869.163043587513	22.611751365553
0	178142	3036945.101912121861	10.593968687951
0	178151	3037701.78454996104	26.137722933367
0	178156	3037750.158256151115	48.373706190075
0	178163	3037885.263352658976	47.91165729202
0	178170	3037969.220545206182	8.937293491652
0	178177	3038328.955796676267	59.500741103491
0	178184	3038649.598052348679	7.014657556042
0	178253	3041206.011386697242	16.561334690302
0	178258	3041238.613918397659	32.602531700417
0	178264	3041353.932112505406	115.31819410775
0	178275	3041379.228833667606	25.2967211622
0	178280	3041385.868330443666	6.63949677606
0	178287	3041442.685252307994	56.816921864328
0	178292	3041444.40226749555	1.717015187556
0	178297	3041484.743313545031	40.341046049481
0	178302	3041508.346260577676	23.602947032645
0	178307	3041545.025323900214	36.679063322538
0	178316	3041628.826807563542	83.801483663328
0	178321	3041655.263526472761	26.436718909219
0	178326	3041663.500961906228	8.237435433467
0	178331	3041741.327387971166	77.826426064938
0	178336	3041756.779323426369	15.451935455203
0	178341	3041854.180103678536	97.400780252167
0	178346	3041911.974008746283	57.793905067747
0	178351	3041923.430041920292	11.456033174009
0	178360	3041991.002039251517	50.304461547534
0	178365	3041993.54361450195	2.541575250433
0	178372	3042646.901674097526	236.57540698295
0	178381	3043076.262666824322	75.558873441228
0	178386	3043096.652136315391	20.389469491069
0	178399	3043632.888675530172	161.02638391946
0	178402	3043636.659055840871	3.770380310699
0	178411	3043664.574947118074	27.915891277203
0	178416	3043693.822521942045	29.247574823971
0	178421	3043702.771125843891	8.948603901846
0	178428	3043755.204541634282	7.656810927831
0	178437	3043988.529265673464	26.472345298506
0	178442	3043998.138560568819	9.609294895355
0	178449	3044046.083499516724	26.003735649381
0	178456	3044166.318091360058	20.162339262354
0	178463	3044213.296919273907	14.637984573194
0	178472	3044263.356957770595	33.748743524852
0	178477	3044425.822517126534	162.46555935594
0	178486	3044535.579109344365	59.075754288715
0	178493	3044554.628330912585	7.363869961019
0	178500	3044605.58781285959	4.109243665074
0	178509	3044699.636008598986	59.510129356844
0	178518	3044848.475729036734	148.83972043775
0	178523	3044991.736684051298	143.26095501456
0	178528	3045005.395309041991	13.658624990693
0	178537	3045035.444466687709	27.280332056143
0	178542	3045061.901465125338	26.456998437629
0	178549	3045219.987487851877	82.117986160755
0	178556	3045377.88570612295	1.72256334037
0	178563	3045637.504447360746	24.473641356844
0	178570	3045881.31032133882	1.448047356359
0	178577	3046057.347834113224	53.721706208543
0	178588	3046241.07109544878	87.980752226266
0	178606	3046558.254327593301	157.42264199577
0	178611	3046564.205361008266	5.951033414965
0	178618	3046625.450461745246	61.24510073698
0	178623	3046630.90756685346	5.457105108214
0	178628	3046688.879222076883	57.971655223423
0	178635	3047066.118382980654	29.177818439577
0	178643	3047423.575134049719	56.900825863456
0	178692	3049289.128508897021	46.256555993769
0	178695	3049289.310428201701	0.18191930468
0	178702	3049294.048292180371	4.73786397867
0	178709	3049607.334125966187	122.22127020639
0	178720	3049817.037357932304	63.323889395875
0	178727	3050158.73640335447	3.142024703633
0	178734	3050365.041983808887	30.713137437712
0	178741	3050409.996012432337	9.285995674269
0	178748	3050488.208911952322	68.44133273668
0	178757	3050678.235387703355	74.298544735455
0	178762	3050707.608797351893	29.373409648538
0	178844	3052456.039917113539	13.782871921126
0	178849	3052515.036109332582	58.996192219043
0	178862	3052746.931858510243	79.735035153968
0	178871	3052823.243333241701	76.311474731458
0	178880	3052876.964296005007	53.720962763306
0	178887	3052924.966342406164	48.002046401157
0	178892	3052935.708524111311	10.742181705147
0	178897	3052945.08091012831	9.372386016999
0	178902	3053014.550032441861	69.469122313551
0	178911	3053058.423596308308	7.175243224964
0	178918	3053096.040819333353	37.617223025045
0	178925	3053136.048653867482	40.007834534129
0	178930	3053152.031314989462	15.98266112198
0	178941	3053302.554943248884	112.57428213904
0	178948	3053325.46596837322	22.911025124336
0	178953	3053338.275324789234	12.809356416014
0	178960	3053393.32771556801	55.052390778776
0	178965	3053438.463386975527	45.135671407517
0	178972	3053638.523790848538	18.643783174484
0	178979	3053851.028916633137	9.96785100004
0	178986	3053979.71164840144	128.38229280898
0	178993	3054397.394757934668	78.646715791764
0	179002	3054486.068612635747	49.564482882272
0	179007	3054487.081352050406	1.012739414659
0	179014	3054535.628039531582	14.709356268571
0	179021	3054687.541083342157	4.171140461634
0	179028	3054881.481009391814	34.007773269264
0	179198	3059447.052563799464	35.836944199314
0	179209	3059492.004173249621	44.951609450157
0	179212	3059492.249678640883	0.245505391262
0	179221	3059515.708156919905	23.458478279022
0	179226	3059524.628738588529	8.920581668624
0	179231	3059566.34226291657	41.713524328041
0	179239	3059648.360236444551	82.017973527981
0	179244	3059671.641048129927	23.280811685376
0	179249	3059749.491917110033	77.850868980106
0	179254	3059758.644859548918	9.152942438885
0	179259	3059786.006294672064	27.361435123146
0	179264	3059798.710149104162	12.703854432098
0	179271	3059819.247792935818	20.537643831656
0	179274	3059820.078202623226	0.830409687408
0	179281	3059833.940294297323	13.862091674097
0	179286	3059841.103190046413	7.16289574909
0	179291	3059880.730689269497	39.627499223084
0	179296	3059950.50080367215	69.770114402653
0	179305	3060006.795585191377	56.294781519227
0	179312	3060047.324610555634	40.529025364257
0	179317	3060060.557517193258	13.232906637624
0	179322	3060090.561128177351	30.003610984093
0	179327	3060130.588415131289	40.027286953938
0	179332	3060135.57635413701	4.987939005721
0	179339	3060167.668704965045	32.092350828035
0	179344	3060167.851595335461	0.182890370416
0	179351	3060251.349894180987	83.498298845526
0	179356	3060279.681898022206	28.332003841219
0	179361	3060319.680767621842	39.998869599636
0	179368	3060464.655173019311	144.97440539747
0	179373	3060569.769137118293	105.11396409898
0	179384	3060660.848659143806	51.56552266344
0	179389	3060684.886929312401	24.038270168595
0	179394	3060709.040489424208	24.153560111807
0	179401	3060948.624861651957	2.625320922811
0	179408	3061014.042233197883	5.943567804656
0	179415	3061071.056559612693	3.035372229892
0	179422	3061163.446452585245	4.385311261347
0	179435	3061403.53484849909	216.95681335558
0	179440	3061419.849454360111	16.314605861021
0	179445	3061427.047945535709	7.198491175598
0	179450	3061535.70437704715	108.65643151144
0	179457	3061802.478286221163	7.193370410472
0	179492	3063485.160403958662	57.164076468324
0	179499	3063560.942499697087	75.782095738425
0	179504	3063561.613691460918	0.671191763831
0	179509	3063568.652034099458	7.03834263854
0	179518	3063696.7473445553	128.09531045584
0	179523	3063704.286475988318	7.539131433018
0	179528	3063710.16870278051	5.882226792192
0	179533	3063738.790364768929	28.621661988419
0	179538	3063759.315247437999	20.52488266907
0	179543	3063798.587793855379	39.27254641738
0	179548	3063839.259748577857	40.671954722478
0	179553	3063856.530847319263	17.271098741406
0	179560	3063907.564416997925	6.845505466288
0	179569	3064085.439123833152	30.353771706698
0	179576	3064129.624414551701	44.185290718549
0	179581	3064150.811049586886	21.186635035185
0	179588	3064186.325180562633	20.949533318274
0	179595	3064343.56464280142	0.471094827312
0	179604	3064468.132643291802	61.016793361696
0	179611	3064482.744889239579	14.612245947777
0	179618	3064494.282219529586	11.537330290007
0	179623	3064504.471635360978	10.189415831392
0	179630	3064574.897736925396	43.520742559564
0	179637	3064600.801825307343	16.526199607355
0	179648	3064635.290772287155	24.917765787928
0	179657	3064784.406607895683	104.22902337537
0	179664	3064810.58642767557	26.179819779887
0	179669	3064824.396330889036	13.809903213466
0	179678	3065185.041824046872	11.797730460704
0	179683	3065226.154419727996	41.112595681124
0	179694	3065430.408859319192	69.288274435306
0	179703	3065453.962647574499	23.553788255307
0	179731	3066265.278074875536	101.44898869867
0	179736	3066307.277443918803	41.999369043267
0	179743	3066344.901757376521	21.638911766937
0	179750	3066586.730088324792	2.303937627495
0	179757	3066765.309532104839	63.869892826118
0	179766	3067090.933914038563	177.80095183914
0	179771	3067099.529480186056	8.595566147493
0	179782	3067182.403090417249	21.09393358013
0	179789	3067348.078485196758	38.820719292288
0	179796	3067483.907867315604	7.227479943245
0	179807	3067706.730019806219	27.590755674223
0	179812	3067719.156095378692	12.426075572473
0	179819	3067735.6654471867	16.509351808008
0	179826	3067757.465291730927	21.799844544227
0	179831	3067858.288613380228	100.8233216493
0	179838	3067895.81686907956	3.098485054632
0	179845	3068053.450043391331	115.72759868018
0	179852	3068592.122881990048	39.541334880956
0	179859	3068715.82724347235	0.107882778684
0	179866	3068964.554601669487	74.111927363337
0	179875	3069040.453551771085	66.089096717621
0	179882	3069057.15347106079	16.699919289705
0	179887	3069078.570745797806	21.417274737016
0	179894	3069137.259790466087	9.927643785349
0	179901	3069161.881069934376	9.316484255078
0	179910	3069276.689557030656	66.02205366459
0	179915	3069285.496072717141	8.806515686485
0	179922	3069348.108738861686	3.369426727406
0	179929	3069421.297347695589	0.725621345849
0	179940	3069497.197501309402	64.688121269687
0	179945	3069535.168929514364	37.971428204962
0	179952	3069558.949793643434	23.78086412907
0	179957	3069607.379340769376	48.429547125942
0	179964	3069813.054359687466	47.56514568657
0	179971	3069876.297416517767	42.184009135492
0	179978	3069955.693990610576	23.311288399734
0	179987	3070124.920844395233	102.0457038135
0	179994	3070216.501920194373	91.58107579914
0	180001	3070237.823505147629	21.321584953256
0	180006	3070254.85852120164	17.035016054011
0	180086	3071984.310134251951	76.559598346175
0	180091	3072071.556641273283	87.246507021332
0	180096	3072110.550831424658	38.994190151375
0	180101	3072176.367595283846	65.816763859188
0	180108	3072220.821026316497	44.453431032651
0	180113	3072245.937748034669	25.116721718172
0	180122	3072413.07828137793	45.509682299332
0	180127	3072481.235009028507	68.156727650577
0	180136	3072569.919120325467	56.466610556966
0	180141	3072580.524809018196	10.605688692729
0	180148	3072674.177115048014	1.835869700378
0	180163	3072813.738169107491	93.834367580148
0	180170	3073084.449613772127	270.71144466464
0	180177	3073152.489944237834	68.040330465707
0	180184	3073245.683398025678	93.193453787844
0	180191	3073271.137936288694	25.454538263016
0	180200	3073313.041407889486	41.903471600792
0	180207	3073363.868252852891	50.826844963405
0	180218	3073432.624536835179	68.756283982288
0	180223	3073434.404934943405	1.780398108226
0	180230	3073470.516921996149	36.111987052744
0	180235	3073483.401768725373	12.884846729224
0	180240	3073517.632812078392	34.231043353019
0	180245	3073534.493791722179	16.860979643787
0	180250	3073553.520303333519	19.02651161134
0	180257	3073653.589552232999	88.210014765047
0	180266	3074136.204797198571	36.778577047764
0	180273	3074213.071250654686	76.866453456115
0	180278	3074216.26720535414	3.195954699454
0	180285	3074580.690642644268	22.360615593225
0	180292	3074784.188489418833	81.514006070115
0	180299	3074924.245523607366	7.023850915804
0	180306	3074977.772401562563	42.100176945159
0	180313	3075150.435606433751	45.784128737779
0	180320	3075943.092424471825	73.020805197805
0	180327	3075956.750253846751	9.155420199892
0	180342	3076307.269094948947	219.13564327973
0	180347	3076309.964433223126	2.695338274179
0	180352	3076339.629253624962	29.664820401836
0	180357	3076360.706913874831	21.077660249869
0	180362	3076389.652142968151	28.94522909332
0	180369	3076459.316029174446	28.534852474853
0	180376	3076504.06245652185	31.955317027694
0	180383	3076541.061549399549	28.46093557114
0	180392	3076669.448881530167	78.716354192059
0	180399	3076705.021762255734	35.572880725567
0	180404	3076724.83953524464	19.817772988906
0	180411	3076780.644562579489	15.895568669949
0	180418	3076989.193537856145	56.255574234923
0	180427	3077357.625498157341	134.06600593467
0	180432	3077460.580208082523	102.95470992518
0	180441	3077494.361037693277	15.045701431743
0	180446	3077528.066565541056	33.705527847779
0	180453	3077681.499808718147	83.842413849824
0	180462	3077767.614654334174	31.544420402696
0	180467	3077800.84024590329	33.225591569116
0	180474	3078058.218153075438	53.272029695225
0	180483	3078142.188582686327	81.966203109992
0	180488	3078170.676680059763	28.488097373436