version 2
run Simulations-68-20191218-11:09:25-65753
attr configname Simulations
attr datetime 20191218-11:09:25
attr experiment Simulations
attr inifile omnetpp.ini
attr iterationvars "$seed=65, $0=9600"
attr iterationvarsf seed=65,9600-
attr measurement "$seed=65, $0=9600"
attr network WifiCelNetPassiveQueue
attr processid 65753
attr repetition 0
attr replication #0
attr resultdir results/Simulations/omnet
attr runnumber 68
attr seedset 65
itervar seed 65
param **.numJobs 10000
param *.OFFLOAD.deadline exponential(9600s)
param *.source.interArrivalTime exponential(120s)
param *.WIFI.serviceTime exponential(40s)
param *.CELL.serviceTime exponential(400s)
param *.OFFLOAD.switchToWi exponential(1524s)
param *.OFFLOAD.switchToCel exponential(3120s)
param *.LOCAL.serviceTime exponential(5s)
param *.REMOTE.serviceTime exponential(1s)

vector 0 WifiCelNetPassiveQueue.WIFI serviceTime:vector ETV
attr interpolationmode none
attr title "wifi Service, vector"
attr unit s
vector 1 WifiCelNetPassiveQueue.WIFI responseTime:vector ETV
attr interpolationmode none
attr title "Response Time, vector"
attr unit s
vector 2 WifiCelNetPassiveQueue.REMOTE serviceTime:vector ETV
attr interpolationmode none
attr title "wifi Service, vector"
attr unit s
vector 3 WifiCelNetPassiveQueue.REMOTE responseTime:vector ETV
attr interpolationmode none
attr title "Response Time, vector"
attr unit s
vector 4 WifiCelNetPassiveQueue.sink lifeTime:vector ETV
attr interpolationmode none
attr title "lifetime of arrived jobs, vector"
attr unit s
vector 5 WifiCelNetPassiveQueue.OFFLOAD queueLength:vector ETV
attr interpolationmode sample-hold
attr title "queue length, vector"
vector 6 WifiCelNetPassiveQueue.OFFLOAD storeCelTime:vector ETV
attr interpolationmode none
attr title "Time in Cell, vector"
attr unit s
vector 7 WifiCelNetPassiveQueue.OFFLOAD storeDeadline:vector ETV
attr interpolationmode none
attr title "deadline, vector"
attr unit s
vector 8 WifiCelNetPassiveQueue.CELL serviceTime:vector ETV
attr interpolationmode none
attr title "wifi Service, vector"
attr unit s
vector 9 WifiCelNetPassiveQueue.CELL responseTime:vector ETV
attr interpolationmode none
attr title "Response Time, vector"
attr unit s
vector 10 WifiCelNetPassiveQueue.LOCAL serviceTime:vector ETV
attr interpolationmode none
attr title "wifi Service, vector"
attr unit s
vector 11 WifiCelNetPassiveQueue.LOCAL responseTime:vector ETV
attr interpolationmode none
attr title "Response Time, vector"
attr unit s
vector 12 WifiCelNetPassiveQueue.OFFLOAD storeWifiTime:vector ETV
attr interpolationmode none
attr title "Time in Wifi, vector"
attr unit s
vector 13 WifiCelNetPassiveQueue.REMOTE queueLength:vector ETV
attr interpolationmode sample-hold
attr title "queue length, vector"
0	174965	3000197.888152314045	19.400660758031
0	174974	3000447.913030422575	1.343116814084
0	174983	3000656.061060820678	208.1480303981
0	174988	3000692.603148618444	36.542087797766
0	174993	3000702.228659126005	9.625510507561
0	175008	3000862.390859025672	127.0749651649
0	175037	3001895.140830279668	33.682953750397
0	175042	3001917.06174374567	21.920913466002
0	175047	3001919.134941287169	2.073197541499
0	175052	3002006.901016642709	87.76607535554
0	175057	3002080.562870510189	73.66185386748
0	175068	3002191.853559791208	111.29068928102
0	175073	3002261.663470757988	69.80991096678
0	175078	3002297.575632891061	35.912162133073
0	175085	3002597.245523046281	58.39440795092
0	175092	3002605.852430424954	5.540305370947
0	175101	3002671.518699653617	57.098769048191
0	175108	3002847.225757859228	31.9199545688
0	175117	3002985.210722001	50.247843113211
0	175122	3003047.972884146246	62.762162145246
0	175129	3003129.676087260842	18.495473394111
0	175136	3003264.861730875029	28.113029156049
0	175143	3003474.178102743544	4.815690999923
0	175150	3003498.949923789865	20.123150290654
0	175157	3003520.033097685373	6.937561574685
0	175164	3003744.587523318805	30.154672555985
0	175201	3004997.897365443745	79.502065457863
0	175206	3005012.349504273	14.452138829255
0	175211	3005037.112774533684	24.763270260684
0	175216	3005102.319772994961	65.206998461277
0	175221	3005169.924216266711	67.60444327175
0	175226	3005189.638619682102	19.714403415391
0	175231	3005195.707211079742	6.06859139764
0	175240	3005309.079611318773	60.119815360605
0	175245	3005317.355442229392	8.275830910619
0	175256	3005358.539372819479	12.50424839114
0	175263	3005420.37527558196	7.594636052863
0	175270	3005505.860254870275	18.856111745319
0	175312	3006419.862716233218	21.385870941251
0	175317	3006430.676730511274	10.814014278056
0	175324	3006450.940732840829	20.264002329555
0	175335	3006541.965554951186	91.024822110357
0	175340	3006569.140472049262	27.174917098076
0	175345	3006579.83070030459	10.690228255328
0	175354	3006689.162038568394	109.3313382638
0	175359	3006691.49031343711	2.328274868716
0	175364	3006760.727399466688	69.237086029578
0	175373	3006838.057422214339	77.330022747651
0	175387	3007114.109386940498	276.05196472616
0	175453	3008381.410123726084	119.50201532869
0	175458	3008397.679681874532	16.269558148448
0	175463	3008442.926756573935	45.247074699403
0	175468	3008487.926031547729	44.999274973794
0	175473	3008516.781794160976	28.855762613247
0	175482	3008577.087736509346	60.30594234837
0	175489	3008646.043051045121	68.955314535775
0	175494	3008650.548001577251	4.50495053213
0	175505	3008706.260802516477	55.712800939226
0	175514	3008831.929228851443	125.66842633497
0	175519	3008856.304661449264	24.375432597821
0	175526	3008866.947705172013	10.643043722749
0	175531	3008894.583925712359	27.636220540346
0	175536	3008912.247536607145	17.663610894786
0	175541	3008925.422692025433	13.175155418288
0	175546	3008928.148662836852	2.725970811419
0	175553	3008957.350110919658	29.201448082806
0	175558	3008978.513012247665	21.162901328007
0	175567	3009070.885295155812	92.372282908147
0	175572	3009119.533796566769	48.648501410957
0	175577	3009126.761578335883	7.227781769114
0	175582	3009217.54528603792	90.783707702037
0	175589	3009295.41622373694	77.87093769902
0	175594	3009335.788779998777	40.372556261837
0	175601	3009886.230603497741	21.434795028619
0	175608	3010101.003782314998	5.544234407143
0	175615	3010177.091763004572	17.055668087942
0	175622	3010321.156564096026	45.920666699116
0	175629	3010359.492446333745	8.641930352912
0	175636	3010471.453600482872	40.779779919508
0	175643	3010536.168075283395	49.6666912436
0	175654	3010635.824564686231	95.68804807876
0	175659	3010679.900726945007	44.076162258776
0	175664	3010682.07093390115	2.170206956143
0	175671	3010847.872899790806	3.518911125125
0	175680	3010966.922814952876	1.66961635801
0	175685	3010975.168219951203	8.245404998327
0	175692	3011178.648336183319	39.90058111661
0	175705	3011461.144952551183	84.934875011102
0	175710	3011514.81202917738	53.667076626197
0	175715	3011533.075741918291	18.263712740911
0	175720	3011578.299375672725	45.223633754434
0	175727	3011679.221506892197	29.594931459004
0	175736	3011822.942383014896	53.321922091285
0	175741	3011830.077236042545	7.134853027649
0	175750	3012048.030793326381	9.899365569398
0	175757	3012148.216833749029	100.18604042265
0	175762	3012150.910443323475	2.693609574446
0	175771	3012439.416072596178	33.284464562804
0	175776	3012447.44335712234	8.027284526162
0	175787	3012683.7669163382	42.443144609964
0	175792	3012699.354046624355	15.587130286155
0	175797	3012715.689152017631	16.335105393276
0	175806	3013283.152043763616	47.646859215383
0	175817	3013329.613954951885	46.461911188269
0	175822	3013402.016818289437	72.402863337552
0	175829	3013419.429700769605	17.412882480168
0	175834	3013436.938228203421	17.508527433816
0	175839	3013491.241768210254	54.303540006833
0	175846	3013534.689572285851	1.135033131569
0	175855	3014078.327462575976	122.95378831655
0	175860	3014141.570964150057	63.243501574081
0	175867	3014627.722464041746	7.867326858543
0	175874	3014642.820583193882	10.451849292202
0	175881	3014718.311436547413	54.070932440177
0	175888	3014764.001348789156	38.885156520131
0	175895	3014957.436418642688	84.276237175866
0	175902	3015223.353069887062	13.756186515123
0	175909	3015655.825264898091	9.836617748809
0	175920	3016013.675284499382	18.669971280004
0	175925	3016075.233051505566	61.557767006184
0	175932	3016130.760691040589	55.527639535023
0	175937	3016156.472545496066	25.711854455477
0	175944	3016437.715943888977	8.225655992997
0	175955	3016657.397026338163	82.693006153557
0	175960	3016664.269303515015	6.872277176852
0	175965	3016757.332871456334	93.063567941319
0	175972	3016840.967367795127	13.408826864831
0	175979	3017012.178890822447	43.294920598847
0	175986	3017050.036889831104	32.907091791834
0	175997	3017187.444554913867	42.518403819911
0	176004	3017244.245915874393	56.801360960526
0	176009	3017247.06139448305	2.815478608657
0	176016	3017349.455113335241	102.39371885219
0	176021	3017427.228600700842	77.773487365601
0	176028	3018022.111603746013	34.298089196906
0	176039	3018186.862387545016	40.406946671001
0	176044	3018229.552595138373	42.690207593357
0	176051	3018282.668332601526	53.115737463153
0	176056	3018308.49787158844	25.829538986914
0	176063	3018616.054779064434	12.803283735816
0	176070	3018631.251823688577	6.876329324695
0	176077	3018819.150324351387	53.947120720043
0	176084	3018914.095927581052	22.749884212163
0	176091	3019019.252816006539	33.775365941677
0	176098	3019069.032820438265	2.147396642473
0	176107	3019574.691561383697	16.578028936888
0	176112	3019582.142969064836	7.451407681139
0	176119	3019625.262736058733	32.859391787621
0	176126	3020006.941243473656	78.641262504022
0	176133	3020258.037195083868	29.039256432908
0	176140	3020270.954436152459	7.215132485781
0	176147	3020679.881219879415	30.239527039686
0	176156	3020702.925793884781	13.529291281361
0	176161	3020731.770923447197	28.845129562416
0	176168	3021009.909600969399	22.01218130473
0	176176	3021149.749499787231	51.468121878008
0	176211	3022204.004440299426	36.040833678493
0	176216	3022216.516535398286	12.51209509886
0	176221	3022221.640846453637	5.124311055351
0	176226	3022239.602972061257	17.96212560762
0	176231	3022283.529289075242	43.926317013985
0	176236	3022289.470322683228	5.941033607986
0	176245	3022395.069536451547	64.769666259572
0	176250	3022470.654523332111	75.584986880564
0	176257	3022544.0664609206	7.782738066603
0	176264	3022674.782936796831	28.34234581765
0	176271	3022725.579945147643	31.194333382842
0	176278	3022777.51052542951	44.373102874925
0	176285	3022822.709948644885	14.685037976587
0	176296	3023031.567929687863	2.727539209513
0	176303	3023050.669992971952	2.381079731804
0	176310	3023191.501035415652	8.024870910308
0	176317	3023390.500444181793	149.7586702323
0	176324	3023511.784935461265	29.803590575615
0	176331	3023655.67255986209	36.77592260426
0	176338	3023922.067671058874	94.201522356718
0	176345	3024080.132662495934	14.525630353953
0	176356	3024426.433993456694	137.36281891387
0	176361	3024511.982123895947	85.548130439253
0	176366	3024531.116658956952	19.134535061005
0	176373	3024601.367546839533	5.679029660125
0	176380	3024684.979832808584	0.074361974793
0	176389	3024727.306348670658	34.561454853124
0	176394	3024743.334043587408	16.02769491675
0	176401	3024955.43639507751	32.317056040705
0	176408	3025138.736016352978	31.804112069914
0	176415	3025297.315606334815	34.180979766161
0	176422	3025391.045998393453	35.581902036273
0	176433	3025551.417139913709	45.111011769046
0	176438	3025564.393707525238	12.976567611529
0	176443	3025596.49852187456	32.104814349322
0	176450	3025636.959459859081	34.730347138095
0	176457	3025913.96140176889	8.372596573364
0	176464	3025969.017898327053	12.906380818337
0	176477	3026204.834487687271	195.22530555052
0	176480	3026206.930105481021	2.09561779375
0	176487	3026212.705592260036	5.775486779015
0	176492	3026214.289890146734	1.584297886698
0	176499	3026264.038779846303	34.360387270423
0	176508	3026507.699278631751	166.71798958349
0	176513	3026528.260862932405	20.561584300654
0	176522	3026938.8182725745	57.294309892323
0	176527	3026941.242763693826	2.424491119326
0	176534	3027058.170465272627	6.299182532624
0	176541	3027230.857410686409	61.970002642116
0	176548	3027291.973962660846	47.446115045375
0	176557	3027467.183787226318	125.51129251301
0	176562	3027481.864680339338	14.68089311302
0	176569	3027572.85733619848	14.270648937515
0	176578	3027652.663640362482	19.360324533857
0	176585	3027695.545320127917	42.881679765435
0	176592	3027732.509551739945	36.964231612028
0	176599	3027762.415752462386	29.906200722441
0	176606	3027872.168304286207	109.75255182382
0	176611	3027877.995100768321	5.826796482114
0	176618	3027951.851611157088	21.415647689869
0	176625	3028168.591654402248	82.155011314249
0	176634	3028248.991209632021	8.335345888384
0	176639	3028322.074215875179	73.083006243158
0	176646	3028492.177980818344	18.970648222199
0	176653	3028909.015673505027	79.870358028354
0	176660	3029045.262465777911	45.946402890966
0	176668	3029156.787539745576	57.343301173722
0	176697	3029516.025151958652	2.568574079426
0	176704	3029576.747127462537	60.721975503885
0	176713	3029597.478168676032	20.731041213495
0	176722	3029704.998233432779	107.52006475675
0	176729	3029721.281824364109	16.28359093133
0	176734	3029750.552827060247	29.271002696138
0	176739	3029756.43777261046	5.884945550213
0	176746	3029845.261247019921	23.101256343341
0	176753	3030288.569539410846	20.031739870935
0	176760	3030828.720648776583	50.740164798008
0	176767	3030985.893277431244	9.475406548414
0	176776	3031073.738077117561	5.826712630709
0	176781	3031106.722459372853	32.984382255292
0	176797	3031869.321431484996	39.842675076002
0	176804	3031968.792019564226	25.885477681047
0	176811	3032138.6353001097	2.668174539282
0	176818	3032366.560036150873	7.687095112416
0	176825	3032414.234888433711	28.147623432977
0	176832	3032610.237170979525	50.391185665906
0	176839	3032760.198095477887	1.038972662835
0	176848	3032937.113622506147	102.70553412932
0	176851	3032937.259549012689	0.145926506542
0	176873	3033794.808305060488	40.276064487737
0	176880	3033821.644623180054	26.836318119566
0	176885	3033936.508929002166	114.86430582211
0	176890	3033947.330408352235	10.821479350069
0	176895	3033958.288091067892	10.957682715657
0	176902	3034034.369872292916	76.081781225024
0	176907	3034104.92984755591	70.559975262994
0	176914	3034173.798578229624	24.350436255261
0	176921	3034276.669185792402	26.75743931187
0	176928	3034538.307331982027	33.844637492918
0	176935	3034565.409010378841	10.523046769495
0	176946	3034617.809524540866	28.721522269367
0	176953	3034747.377645871189	18.094983553443
0	176960	3034855.344330727361	23.591106283152
0	176967	3034952.43110397651	0.849719479127
0	176988	3035507.441101834143	21.459713930743
0	176993	3035562.75802611929	55.316924285147
0	177000	3035618.974343376436	42.437587641324
0	177009	3035802.89753194683	29.780080325869
0	177016	3035853.882534294751	50.985002347921
0	177021	3035862.295703593879	8.413169299128
0	177032	3036172.315908705479	0.073976055545
0	177039	3036219.499706770013	17.835061746926
0	177048	3036320.415134758141	59.662167266517
0	177053	3036361.531572732526	41.116437974385
0	177060	3036502.399771285251	93.072487115035
0	177067	3036624.998572283998	19.673404340068
0	177074	3036640.894091735557	1.320588047837
0	177081	3036646.259759993918	0.867063982752
0	177088	3036708.065774140042	9.302352423493
0	177097	3036912.240559060756	54.052539139966
0	177102	3036966.014929263681	53.774370202925
0	177109	3037074.934673180968	15.902170111562
0	177116	3037345.967747376658	1.333272485816
0	177123	3037383.42991160415	20.707932683774
0	177130	3037473.079022200712	47.645407541739
0	177137	3037573.022127392277	90.501094352986
0	177144	3037741.934104257116	5.642986553559
0	177151	3037787.661537558154	36.207994181124
0	177158	3038069.727283775165	138.31511689002
0	177171	3038208.149998828305	100.15311576758
0	177176	3038211.459520769526	3.309521941221
0	177181	3038213.708108304719	2.248587535193
0	177186	3038248.561432128011	34.853323823292
0	177193	3038327.572210805334	49.425578088073
0	177206	3038587.574938250106	67.63767906643
0	177211	3038653.650145882823	66.075207632717
0	177214	3038653.872649774511	0.222503891688
0	177221	3038672.842305871769	18.969656097258
0	177233	3039493.52630812879	38.594245764999
0	177244	3039643.228690279397	66.665184580626
0	177249	3039667.431684553828	24.202994274431
0	177254	3039696.448017151964	29.016332598136
0	177262	3039899.458429600805	43.996152620424
0	177301	3040716.14355073029	4.485063632549
0	177307	3040733.451145762334	17.307595032044
0	177316	3040822.621446086462	89.170300324128
0	177321	3040830.156919926416	7.535473839954
0	177326	3040852.001107858921	21.844187932505
0	177331	3040895.621194628548	43.620086769627
0	177338	3041116.816132931233	3.857746786239
0	177345	3041137.862936081002	0.901834951161
0	177352	3041371.870766690043	149.85359715083
0	177361	3041417.491704220898	12.268776126714
0	177366	3041490.163943727054	72.672239506156
0	177373	3041839.004906340374	1.375764019526
0	177380	3041932.014772985477	1.950847016634
0	177387	3042110.046433441952	10.604863789589
0	177396	3042397.412383828666	18.223970385592
0	177401	3042409.181072753056	11.76868892439
0	177408	3042667.360782099527	8.797350141662
0	177415	3042799.563200959919	48.24938311507
0	177422	3042901.429420125029	70.565885824267
0	177429	3042936.645585783416	0.499115585921
0	177440	3043227.914256197006	68.205511385177
0	177445	3043233.171747163774	5.257490966768
0	177450	3043239.307457254703	6.135710090929
0	177459	3043283.975923353713	41.43247209706
0	177464	3043287.534737158701	3.558813804988
0	177471	3043308.585260492182	3.62206965461
0	177478	3043354.994643695495	2.435907432407
0	177485	3043414.869250871631	33.34234827385
0	177492	3043540.446230367906	6.20443287853
0	177503	3043633.666843400433	56.005948230805
0	177514	3043700.359099754825	66.692256354392
0	177519	3043714.528072158457	14.168972403632
0	177524	3043731.201519819907	16.67344766145
0	177533	3043871.851602978993	140.65008315909
0	177691	3047243.634987122782	2.811556153593
0	177700	3047357.891009651818	114.25602252904
0	177705	3047373.496892694425	15.605883042607
0	177710	3047397.033238768614	23.536346074189
0	177715	3047481.18767226699	84.154433498376
0	177720	3047488.128949574907	6.941277307917
0	177727	3047512.417714780647	24.28876520574
0	177732	3047569.110760723996	56.693045943349
0	177737	3047604.742782077709	35.632021353713
0	177746	3047631.177705482469	26.43492340476
0	177751	3047671.521312165032	40.343606682563
0	177754	3047671.766076529689	0.244764364657
0	177761	3047700.945748612926	29.179672083237
0	177766	3047702.360452227587	1.414703614661
0	177771	3047717.489592542643	15.129140315056
0	177774	3047718.781487041423	1.29189449878
0	177783	3047747.985079889626	29.203592848203
0	177788	3047755.316809241069	7.331729351443
0	177793	3047769.685010547796	14.368201306727
0	177798	3047786.64354807176	16.958537523964
0	177803	3047806.621765542751	19.978217470991
0	177812	3047986.799155607658	180.17739006491
0	177817	3048102.307083360965	115.50792775331
0	177822	3048105.123686717371	2.816603356406
0	177827	3048127.281362479029	22.157675761658
0	177832	3048169.995496407961	42.714133928932
0	177839	3048239.37740210534	5.157201587249
0	177846	3048473.031158883275	48.75719212343
0	177855	3048575.21359950312	31.759179705098
0	177860	3048611.698138872757	36.484539369637
0	177867	3048646.356232451688	32.65880599457
0	177874	3048967.24777603163	41.148633133712
0	177881	3049373.086253643419	84.870447160749
0	177888	3049519.711081171298	18.569884778854
0	177895	3049557.536257349763	12.845903755172
0	177902	3049649.990580636879	15.735008000591
0	177911	3050286.146214636211	124.73273074244
0	177916	3050328.033268633583	41.887053997372
0	177923	3050423.351186963808	24.104450839153
0	177930	3050792.247552043516	16.015075526443
0	177937	3050885.69176896801	39.686699815952
0	177948	3051530.924648993354	61.192611351429
0	177983	3052650.73400331624	19.855588026203
0	177988	3052654.499644987288	3.765641671048
0	177993	3052655.57383267418	1.074187686892
0	178004	3052689.838532398948	34.264699724768
0	178009	3052701.806208032247	11.967675633299
0	178016	3053420.650975696059	5.704401730075
0	178023	3053629.449258470587	88.071313011615
0	178030	3053650.42041553122	1.24406592484
0	178037	3053924.488845462136	31.830496844319
0	178044	3054077.768962579516	10.761143530267
0	178053	3054124.307899523758	42.540140895307
0	178058	3054125.491153878475	1.183254354717
0	178065	3054203.721489915421	26.689469390157
0	178072	3054396.929606808557	7.245840614212
0	178079	3054447.943739079699	27.634480934632
0	178087	3054560.977886164959	78.126634877089
0	178095	3055113.70195876745	14.737063755406
0	178102	3056008.860892428771	115.17659544547
0	178109	3056099.662466715156	7.563316583357
0	178116	3056147.485785223979	4.841667822381
0	178123	3056258.458830400175	33.888748022332
0	178130	3056353.281164673249	41.79224365024
0	178137	3056440.695318472685	16.098240123692
0	178144	3056482.569146827104	32.227231263582
0	178153	3056740.000899085945	17.759437767935
0	178158	3056782.477755817685	42.47685673174
0	178167	3056932.038209259778	19.079173232369
0	178172	3057010.849319318272	78.811110058494
0	178179	3057095.678553244201	40.358610151208
0	178188	3057352.14115050616	3.139077620443
0	178195	3057446.337404733573	8.908296897883
0	178202	3057478.567164989828	18.814365625349
0	178211	3057730.913516486966	27.007866990083
0	178218	3057798.487497013836	67.57398052687
0	178223	3057820.854090980611	22.366593966775
0	178230	3057914.690023532799	12.681926483546
0	178237	3057990.601581871821	16.531013576394
0	178244	3058094.02579967957	25.848241141732
0	178253	3058499.872378383005	60.411363855817
0	178258	3058503.76070265165	3.888324268645
0	178269	3058746.07932012458	227.18010709051
0	178274	3058753.7661781183	7.68685799372
0	178279	3058769.981917494309	16.215739376009
0	178288	3058888.169465781999	14.513869733522
0	178293	3058907.907546175032	19.738080393033
0	178300	3059069.188764106233	60.616989710497
0	178307	3059128.371888164294	21.555939811055
0	178314	3059175.985112071333	39.363727808023
0	178321	3059409.859914092866	33.811476399005
0	178328	3059488.500860138277	75.534755301362
0	178335	3059588.859121841229	26.059477923562
0	178369	3060660.754862494685	22.827169326578
0	178374	3060740.253087932436	79.498225437751
0	178379	3060766.980647773854	26.727559841418
0	178388	3060820.064861479647	53.084213705793
0	178393	3060835.189393217917	15.12453173827
0	178400	3061053.875604881253	0.048114227752
0	178407	3061254.265925597391	3.19843981412
0	178469	3063431.739341515233	8.670550270812
0	178478	3063467.816705976444	36.077364461211
0	178483	3063506.569009908114	38.75230393167
0	178488	3063506.866779868205	0.297769960091
0	178493	3063510.904649294803	4.037869426598
0	178498	3063521.382182723441	10.477533428638
0	178505	3063767.703816961015	45.143563754014
0	178512	3063863.013996812355	8.978863801331
0	178523	3063936.894261696032	39.684720454974
0	178532	3064099.651358868462	162.75709717243
0	178537	3064144.507437773143	44.856078904681
0	178542	3064149.174806627764	4.667368854621
0	178547	3064187.453129213036	38.278322585272
0	178581	3064859.648980752453	52.680996233351
0	178586	3064864.631031924915	4.982051172462
0	178599	3064909.1567012743	44.525669349385
0	178604	3064936.82387234797	27.66717107367
0	178609	3064953.62725383041	16.80338148244
0	178614	3065081.893971093305	128.26671726289
0	178619	3065125.017114840221	43.123143746916
0	178626	3065225.139907658375	31.00818675705
0	178633	3065705.508216212028	35.536756490075
0	178640	3065791.171992057337	68.354813820874
0	178647	3065822.674410682413	30.061286130112
0	178654	3065874.058519045407	36.579476317128
0	178661	3065906.366275368163	29.104318918236
0	178668	3065952.305842031675	3.236211273662
0	178675	3066391.928727722188	32.623696928932
0	178682	3066456.63438226964	53.433111174423
0	178691	3066597.844692656799	91.080743090365
0	178696	3066602.660077601925	4.815384945126
0	178705	3067194.272740059526	125.17245514825
0	178710	3067220.84591804447	26.573177984944
0	178717	3067356.232362993013	86.759760591715
0	178885	3072129.147607373874	46.393536966678
0	178890	3072227.976332235243	98.828724861369
0	178895	3072261.285190604538	33.308858369295
0	178902	3072294.31291673822	33.027726133682
0	178942	3073795.647506726427	43.946324776149
0	178947	3073802.872114601021	7.224607874594
0	178952	3073846.25715071163	43.385036110609
0	178957	3073853.930673157107	7.673522445477
0	178966	3073896.861779056711	42.931105899604
0	178971	3073903.743201338241	6.88142228153
0	178983	3074011.214575313988	107.47137397575
0	178990	3074052.744045207251	41.529469893263
0	178997	3074087.654082934993	34.910037727742
0	179002	3074089.799261940491	2.145179005498
0	179007	3074118.897607024455	29.098345083964
0	179012	3074158.327067709807	39.429460685352
0	179019	3074206.363431895907	48.0363641861
0	179026	3074352.734927330815	146.37149543491
0	179035	3074406.922618226741	54.187690895926
0	179040	3074528.971417361956	122.04879913521
0	179045	3074545.121129662579	16.149712300623
0	179052	3074582.46533941916	37.344209756581
0	179057	3074610.036831870444	27.571492451284
0	179062	3074621.468720190773	11.431888320329
0	179067	3074646.188753521083	24.72003333031
0	179072	3074664.067383238559	17.878629717476
0	179085	3074692.5829782476	28.515595009041
0	179090	3074742.032460639327	49.449482391727
0	179095	3074755.627864698014	13.595404058687
0	179100	3074862.214801465007	106.58693676699
0	179107	3074883.223918200087	21.00911673508
0	179114	3074934.31000681577	51.086088615683
0	179119	3074936.397705299935	2.087698484165
0	179124	3074968.978490963149	32.580785663214
0	179129	3074972.704089194387	3.725598231238
0	179134	3074984.735033146306	12.030943951919
0	179139	3075047.02549343419	62.290460287884
0	179146	3075097.305051657855	50.279558223665
0	179151	3075170.010565970289	72.705514312434
0	179156	3075175.949000395282	5.938434424993
0	179161	3075200.131764584155	24.182764188873
0	179166	3075201.331947089321	1.200182505166
0	179175	3075526.038194611338	30.099402558604
0	179181	3075539.935348192123	13.897153580785
0	179274	3078609.354010014157	28.713677813373
0	179284	3078707.850839668116	98.496829653959
0	179289	3078719.184604134858	11.333764466742
0	179294	3078731.867908081882	12.683303947024
0	179299	3078754.013459770069	22.145551688187
0	179305	3078836.515796727442	82.502336957373
0	179321	3079087.786950899556	251.27115417211
0	179329	3079254.012318967336	36.009917167675
0	179336	3079286.262359691178	32.250040723842
0	179341	3079297.140905460371	10.878545769193
0	179346	3079316.784530539807	19.643625079436
0	179356	3079376.632767598877	59.84823705907
0	179474	3081509.563417650925	60.076388012898
0	179481	3081749.561349479405	239.99793182848
0	179486	3081760.17761051843	10.616261039025
0	179491	3081787.038308960024	26.860698441594
0	179496	3081788.379930703968	1.341621743944
0	179501	3081801.272086654867	12.892155950899
0	179506	3081858.920684274869	57.648597620002
0	179511	3081876.175293204747	17.254608929878
0	179520	3081930.402359081127	54.22706587638
0	179527	3081947.511307764572	17.108948683445
0	179533	3081977.103111831044	29.591804066472
0	179538	3081995.531325532143	18.428213701099
0	179543	3082031.095453762412	35.564128230269
0	179548	3082057.918999036132	26.82354527372
0	179553	3082069.657706938341	11.738707902209
0	179558	3082163.822105864049	94.164398925708
0	179563	3082211.270579156794	47.448473292745
0	179568	3082236.268657862403	24.998078705609
0	179575	3082261.048242764517	24.779584902114
0	179580	3082273.843805197938	12.795562433421
0	179588	3082400.54195000247	126.69814480453
0	179593	3082462.275393078835	61.733443076365
0	179598	3082523.850144582495	61.57475150366
0	179603	3082545.972033448931	22.121888866436
0	179608	3082580.419432749743	34.447399300812
0	179615	3082645.879432387406	65.459999637663
0	179622	3082649.509566376669	3.630133989263
0	179629	3082720.405357044007	70.895790667338
0	179634	3082729.7831413438	9.377784299793
0	179639	3082746.802253095898	17.019111752098
0	179644	3082752.218171235353	5.415918139455
0	179649	3082837.389108622354	85.170937387001
0	179654	3082849.280246559145	11.891137936791
0	179659	3082881.095949275388	31.815702716243
0	179664	3082903.154485797684	22.058536522296
0	179669	3082914.805051550027	11.650565752343
0	179678	3083117.532061311176	202.72700976115
0	179683	3083128.68689052862	11.154829217444
0	179688	3083196.515974527678	67.829083999058
0	179693	3083204.776274269716	8.260299742038
0	179698	3083210.239041756328	5.462767486612
0	179703	3083215.482544463921	5.243502707593
0	179710	3083337.542449097707	21.554478209031
0	179717	3083380.026712973871	22.684373918051
0	179724	3083397.447663408535	10.739007884381
0	179732	3083463.649765901011	31.240647879168
0	179747	3083743.95211718566	7.21380520565
0	179754	3083746.411526818612	0.533256809351
0	179761	3083802.116765089259	13.695358199742
0	179768	3084050.44630498807	33.403933064056
0	179775	3084088.910735453851	3.216714772429
0	179784	3084200.517117664737	62.164455818274
0	179789	3084227.68133935768	27.164221692943
0	179796	3084326.043875795803	0.115913086361
0	179803	3084512.170092899013	33.441488478836
0	179810	3084603.412185618127	22.972287558579
0	179819	3084733.4756725578	108.71136716415
0	179824	3084742.780239090163	9.304566532363
0	179831	3085103.791979318379	30.899889625083
0	179844	3085165.071967551396	22.024284639265
0	179849	3085201.093338012722	36.021370461326
0	179854	3085226.717623785933	25.624285773211
0	179859	3085251.681211062218	24.963587276285
0	179866	3085354.852417514439	9.99414727728
0	179873	3085639.505296833558	17.947449473381
0	179880	3085919.326716991397	13.165347852564
0	179887	3086009.097777677612	36.700720328464
0	179940	3087666.566895787617	11.382571681738
0	179945	3087669.153659095906	2.586763308289
0	179950	3087695.565424823145	26.411765727239
0	179955	3087733.027862201512	37.462437378367
0	179964	3087792.04646269917	59.018600497658
0	179969	3087812.098420704709	20.051958005539
0	179978	3087852.43758174173	40.339161037021
0	179983	3087924.376865820893	71.939284079163