version 2
run Simulations-27-20191218-11:09:17-65753
attr configname Simulations
attr datetime 20191218-11:09:17
attr experiment Simulations
attr inifile omnetpp.ini
attr iterationvars "$seed=25, $0=1980"
attr iterationvarsf seed=25,1980-
attr measurement "$seed=25, $0=1980"
attr network WifiCelNetPassiveQueue
attr processid 65753
attr repetition 0
attr replication #0
attr resultdir results/Simulations/omnet
attr runnumber 27
attr seedset 25
itervar seed 25
param **.numJobs 10000
param *.OFFLOAD.deadline exponential(1980s)
param *.source.interArrivalTime exponential(120s)
param *.WIFI.serviceTime exponential(40s)
param *.CELL.serviceTime exponential(400s)
param *.OFFLOAD.switchToWi exponential(1524s)
param *.OFFLOAD.switchToCel exponential(3120s)
param *.LOCAL.serviceTime exponential(5s)
param *.REMOTE.serviceTime exponential(1s)

vector 0 WifiCelNetPassiveQueue.WIFI serviceTime:vector ETV
attr interpolationmode none
attr title "wifi Service, vector"
attr unit s
vector 1 WifiCelNetPassiveQueue.WIFI responseTime:vector ETV
attr interpolationmode none
attr title "Response Time, vector"
attr unit s
vector 2 WifiCelNetPassiveQueue.REMOTE serviceTime:vector ETV
attr interpolationmode none
attr title "wifi Service, vector"
attr unit s
vector 3 WifiCelNetPassiveQueue.REMOTE responseTime:vector ETV
attr interpolationmode none
attr title "Response Time, vector"
attr unit s
vector 4 WifiCelNetPassiveQueue.sink lifeTime:vector ETV
attr interpolationmode none
attr title "lifetime of arrived jobs, vector"
attr unit s
vector 5 WifiCelNetPassiveQueue.OFFLOAD queueLength:vector ETV
attr interpolationmode sample-hold
attr title "queue length, vector"
vector 6 WifiCelNetPassiveQueue.REMOTE queueLength:vector ETV
attr interpolationmode sample-hold
attr title "queue length, vector"
vector 7 WifiCelNetPassiveQueue.OFFLOAD storeCelTime:vector ETV
attr interpolationmode none
attr title "Time in Cell, vector"
attr unit s
vector 8 WifiCelNetPassiveQueue.OFFLOAD storeDeadline:vector ETV
attr interpolationmode none
attr title "deadline, vector"
attr unit s
vector 9 WifiCelNetPassiveQueue.CELL serviceTime:vector ETV
attr interpolationmode none
attr title "wifi Service, vector"
attr unit s
vector 10 WifiCelNetPassiveQueue.CELL responseTime:vector ETV
attr interpolationmode none
attr title "Response Time, vector"
attr unit s
vector 11 WifiCelNetPassiveQueue.OFFLOAD storeWifiTime:vector ETV
attr interpolationmode none
attr title "Time in Wifi, vector"
attr unit s
vector 12 WifiCelNetPassiveQueue.LOCAL serviceTime:vector ETV
attr interpolationmode none
attr title "wifi Service, vector"
attr unit s
vector 13 WifiCelNetPassiveQueue.LOCAL responseTime:vector ETV
attr interpolationmode none
attr title "Response Time, vector"
attr unit s
vector 14 WifiCelNetPassiveQueue.LOCAL queueLength:vector ETV
attr interpolationmode sample-hold
attr title "queue length, vector"
0	172744	3000216.701766367	25.985040025736
0	172751	3000311.346474282587	9.672619690037
0	172758	3000381.822336034797	24.303843446286
0	172769	3000556.336762309685	106.64563947901
0	172774	3000601.623347651777	45.286585342092
0	172777	3000602.141324247482	0.517976595705
0	172788	3000699.137583742922	32.247109159559
0	172799	3000944.480447966753	245.34286422383
0	172804	3000974.868307124792	30.387859158039
0	172811	3001019.020415275653	44.152108150861
0	172816	3001105.139914014813	86.11949873916
0	172821	3001119.966171696458	14.826257681645
0	172830	3001157.068598153441	17.990438115513
0	172835	3001174.204026545342	17.135428391901
0	172842	3001207.896606474645	0.558479783611
0	172849	3001392.828329798075	36.352151143956
0	172858	3001489.58730416602	48.025545960039
0	172863	3001497.569404718653	7.982100552633
0	172872	3001891.391087803574	156.71884307743
0	172877	3001934.349748497154	42.95866069358
0	172886	3002062.615207838309	98.540546318017
0	172893	3002167.705325994262	105.09011815595
0	172898	3002173.798274370438	6.092948376176
0	172909	3002266.833395675784	62.939153695226
0	172916	3002352.131435634203	85.298039958419
0	172921	3002372.253166446931	20.121730812728
0	172926	3002391.884182766381	19.63101631945
0	172933	3002636.29811304679	42.241823878015
0	172940	3002908.169956933133	23.021585007907
0	172947	3002993.079243114703	2.308362525048
0	172954	3003005.049234253466	8.699982750115
0	172961	3003054.428349423	21.826569749286
0	172968	3003170.959020055391	64.426867453367
0	172977	3003385.323124443043	47.927449042695
0	172982	3003395.535610125319	10.212485682276
0	172991	3003725.59631771971	14.37972541475
0	173000	3003768.519452251521	42.923134531811
0	173005	3003789.523368555444	21.003916303923
0	173012	3003897.539249084524	108.01588052908
0	173017	3003957.123927133703	59.584678049179
0	173024	3004006.244314606767	20.802481042865
0	173031	3004176.043082711211	34.935309345754
0	173044	3004459.324993285142	147.2735159142
0	173049	3004530.95274043013	71.627747144988
0	173054	3004536.341780151351	5.389039721221
0	173059	3004542.051139187514	5.709359036163
0	173066	3004687.338783814135	62.325119534901
0	173073	3004910.440704618868	39.95142235391
0	173080	3004982.720299176184	1.031767051853
0	173087	3005204.775270482166	30.126930442375
0	173119	3006413.791777378529	32.222619709018
0	173130	3006495.071651543488	81.279874164959
0	173136	3006638.381894540363	143.31024299687
0	173141	3006640.445842802246	2.063948261883
0	173146	3006794.33265128651	153.88680848426
0	173153	3006821.163563288247	9.223292732196
0	173160	3006978.802371974395	39.761616154809
0	173167	3007054.464937137711	46.291900346242
0	173174	3007144.169778815765	30.701444738858
0	173181	3007450.235891839992	3.103303755509
0	173190	3007801.399137821334	38.673694271669
0	173193	3007801.656830773745	0.257692952411
0	173202	3008247.781430811155	15.158898134969
0	173211	3008605.085445375296	44.739193237335
0	173216	3008606.64095743209	1.555512056794
0	173223	3008809.268654824537	6.015508340607
0	173230	3009038.183682521054	171.05139431807
0	173237	3009363.071845273903	142.62741532048
0	173244	3009427.243589106524	2.026626573686
0	173251	3009582.84919988715	16.217333852873
0	173258	3009604.472518195901	16.219936030674
0	173265	3009805.067714941014	35.238725872174
0	173272	3009900.754666668658	3.353858670176
0	173281	3009993.395702295046	77.578732395226
0	173290	3010145.391395156081	151.99569286103
0	173295	3010162.874776380974	17.483381224893
0	173300	3010194.643352036165	31.768575655191
0	173307	3010256.909363548871	29.384499962015
0	173316	3010525.978998808147	120.31910777066
0	173323	3010621.847373366999	95.868374558852
0	173328	3010628.696055812672	6.848682445673
0	173335	3010802.347938679717	66.357121930993
0	173342	3010899.82311659209	12.061564449481
0	173349	3011113.476588532387	52.990468201153
0	173356	3011305.602988344169	29.263341349925
0	173365	3011618.590033888407	189.62592382944
0	173370	3011622.354935761138	3.764901872731
0	173377	3011712.665351140972	77.836253057964
0	173384	3011739.592980975198	14.639388018508
0	173397	3011945.758849336721	118.97321774771
0	173402	3011974.478648028335	28.719798691614
0	173407	3012009.86351356841	35.384865540075
0	173412	3012037.032097010579	27.168583442169
0	173423	3012082.468804863867	32.097743767204
0	173428	3012178.377841769318	95.909036905451
0	173437	3012403.682131645541	225.30428987622
0	173440	3012403.97183736416	0.289705718619
0	173447	3012491.611797519826	87.639960155666
0	173454	3012614.455733631712	1.505345522235
0	173463	3012902.122695500587	71.189984255922
0	173468	3012963.380866628575	61.258171127988
0	173475	3013029.676371189212	26.799782064861
0	173482	3013105.393086462906	6.670549141005
0	173491	3013327.28784864069	9.86231317674
0	173500	3013361.787458667234	34.499610026544
0	173503	3013362.070815515208	0.283356847974
0	173510	3013391.151696670261	29.080881155053
0	173523	3013513.520396401436	118.15926342998
0	173528	3013532.594834517669	19.074438116233
0	173533	3013554.325524554079	21.73069003641
0	173538	3013571.20154975827	16.876025204191
0	173547	3013654.74939676591	78.567622806358
0	173552	3013694.562129037955	39.812732272045
0	173559	3013740.459452404453	32.049767165523
0	173566	3014296.954063011919	28.408191883171
0	173573	3014555.179163867268	14.36590596902
0	173580	3014951.310295866498	23.622256500691
0	173589	3015096.732685615441	19.02506578443
0	173594	3015155.545936253961	58.81325063852
0	173601	3015163.73856206424	0.304484293231
0	173608	3015249.523700924366	0.81012272839
0	173615	3015333.378456079272	5.968755290512
0	173622	3015395.976762498772	20.999724026683
0	173629	3015501.216386698995	60.304934784897
0	173640	3015742.40415476597	115.77942072955
0	173645	3015766.48928359971	24.08512883374
0	173650	3015781.352278587582	14.862994987872
0	173659	3015938.932991374759	156.01933361879
0	173664	3015946.810850679664	7.877859304905
0	173671	3016398.073281889066	45.615546485645
0	173678	3016675.867038008751	26.181712740021
0	173685	3016701.172442892411	10.670736117038
0	173692	3016804.878869162243	58.29908418087
0	173699	3016818.372445164211	2.873288741869
0	173708	3016965.0701027078	41.718599357488
0	173715	3017071.45262343857	38.805187578814
0	173726	3017231.484094397865	72.852032533136
0	173731	3017339.744795462567	108.2607010647
0	173738	3017343.60371005354	3.858914590973
0	173745	3017386.72098212699	43.11727207345
0	173750	3017389.89258029609	3.1715981691
0	173759	3017657.012846739696	72.270679572116
0	173764	3017711.042328567295	54.029481827599
0	173771	3017745.504381335911	26.745196187141
0	173778	3017826.83687130036	7.709065067007
0	173785	3017990.135588958446	40.34874871744
0	173792	3018156.439839075676	83.029290797201
0	173801	3018415.389211212732	31.156289115162
0	173806	3018425.24890539247	9.859694179738
0	173813	3018475.834316609239	25.930460431986
0	173820	3018854.110597963525	29.211293502256
0	173829	3019035.478428874804	13.408263033256
0	173836	3019096.215875161016	60.737446286212
0	173841	3019122.266535214056	26.05066005304
0	173848	3019201.611850144349	1.142709001386
0	173855	3019593.419057642092	1.023646247302
0	173862	3019817.350528048573	105.60070422098
0	173869	3020023.444818889624	31.599920753079
0	173876	3020386.092016302248	31.784541513362
0	173883	3020456.752273728773	5.976050849957
0	173892	3020625.716381961225	123.20802280225
0	173901	3020666.491034630278	40.774652669053
0	173906	3020743.044166872672	76.553132242394
0	173911	3020770.769934830079	27.725767957407
0	174142	3026341.105664697771	19.984028512753
0	174149	3026371.945184633668	30.839519935897
0	174154	3026457.857454134837	85.912269501169
0	174161	3026522.80200397818	23.20554993738
0	174168	3026687.213702753299	12.061851850481
0	174177	3026788.841712108575	11.66294332466
0	174184	3026836.224235380154	47.382523271579
0	174189	3026841.832406113707	5.608170733553
0	174196	3026927.395267086973	70.77451190878
0	174205	3027027.96890604395	77.809660103875
0	174210	3027040.050704193752	12.081798149802
0	174217	3027089.962098414373	13.020756378122
0	174232	3027429.316947494741	284.40006014314
0	174237	3027482.610545367778	53.293597873037
0	174242	3027541.785546398475	59.175001030697
0	174247	3027608.687718694047	66.902172295572
0	174254	3027692.053871961926	83.366153267879
0	174259	3027729.214544598134	37.160672636208
0	174266	3027823.411005039802	3.973480851948
0	174273	3027904.280573266771	12.808480444166
0	174280	3028177.854377304161	43.671076154237
0	174291	3028608.951150714324	247.21174621893
0	174296	3028637.03529146231	28.084140747986
0	174301	3028643.239049683847	6.203758221537
0	174308	3028947.469118523966	59.833683349157
0	174315	3029456.552231814736	103.20801589515
0	174322	3029480.240728482829	2.74445579083
0	174329	3030311.381806653914	33.504825128386
0	174343	3030959.139049335545	73.829793916012
0	174350	3031042.532403844815	83.39335450927
0	174359	3031250.432627039085	207.90022319427
0	174364	3031289.621974804518	39.189347765433
0	174369	3031390.778265156845	101.15629035233
0	174380	3031499.41929833605	30.451041754937
0	174389	3031567.436900301808	60.214372447404
0	174402	3031611.761986300381	44.325085998573
0	174407	3031616.623846460145	4.861860159764
0	174412	3031672.534649610097	55.910803149952
0	174421	3031728.452182959082	55.917533348985
0	174426	3031749.383024684635	20.930841725553
0	174431	3031815.514042975933	66.131018291298
0	174436	3031884.300080220236	68.786037244303
0	174443	3031985.218218124147	16.850503192005
0	174450	3032012.328279480826	7.596420927669
0	174457	3032164.677998838527	6.116428359985
0	174466	3032391.318265489269	45.571598292742
0	174473	3032411.484340443897	20.166074954628
0	174478	3032420.359515935534	8.875175491637
0	174485	3032496.687638717483	72.824443175488
0	174492	3032505.110890192833	8.415405855487
0	174499	3032715.510249634392	10.432537930667
0	174506	3032855.483881142838	22.345406376038
0	174513	3032947.612214652136	84.911380469426
0	174520	3033532.580725384058	4.862779777237
0	174527	3033704.187526277877	13.267485435706
0	174536	3034045.042458338852	19.041880674634
0	174541	3034093.537139228317	48.494680889465
0	174548	3034155.717661284287	12.524434331182
0	174555	3034493.721378678828	48.027878403837
0	174570	3034939.664654828206	87.822373825109
0	174575	3034956.73546323348	17.070808405274
0	174582	3034971.746855493206	15.011392259726
0	174587	3034977.835537937771	6.088682444565
0	174592	3034982.547687049439	4.712149111668
0	174603	3035088.06410397198	105.51641692254
0	174610	3035093.757633248328	5.693529276348
0	174615	3035115.876148381833	22.118515133505
0	174620	3035137.4532560562	21.577107674367
0	174625	3035157.697074665927	20.243818609727
0	174636	3035340.78806457275	71.658252030894
0	174641	3035439.942778368906	99.154713796156
0	174644	3035440.928968468004	0.986190099098
0	174655	3035588.7261590768	51.384647118398
0	174660	3035593.219471254867	4.493312178067
0	174667	3035637.834033563028	4.263997774839
0	174674	3035719.187522625727	29.33170246048
0	174681	3035860.7015612027	8.074995842048
0	174721	3036871.722598286634	31.865786426549
0	174726	3036876.922576210657	5.199977924023
0	174733	3036882.962355224321	6.039779013664
0	174738	3036889.292809572315	6.330454347994
0	174743	3036892.705783771444	3.412974199129
0	174748	3036949.218658315486	56.512874544042
0	174755	3036994.088155699089	44.869497383603
0	174760	3037016.516709402638	22.428553703549
0	174767	3037058.852443396822	22.569192786918
0	174774	3037109.12506264699	14.609551891605
0	174781	3037176.462732476543	27.265182383262
0	174790	3037214.333354018089	28.163347810932
0	174795	3037277.110507373785	62.777153355696
0	174802	3037315.180502561229	33.295014869911
0	174809	3037388.799640710007	3.357398100443
0	174816	3037474.125880892101	40.161475291759
0	174823	3037481.853155756757	4.467484374698
0	174830	3037650.453922815126	18.473784432661
0	174837	3037798.584343798017	30.743729864167
0	174844	3037885.49692595143	20.598429584453
0	174851	3038283.172215318298	2.725328765815
0	174858	3038321.859760483422	8.545770647416
0	174865	3038483.245943640248	37.964473682263
0	174930	3039976.57440533412	15.266446115293
0	174937	3040025.779826914087	49.205421579967
0	174942	3040042.515603706735	16.735776792648
0	174947	3040081.762858872673	39.247255165938
0	174952	3040090.631346743649	8.868487870976
0	174957	3040178.654208394626	88.022861650977
0	174968	3040237.986499606442	59.332291211816
0	174973	3040239.600213676023	1.613714069581
0	174978	3040259.946708122294	20.346494446271
0	174987	3040354.217306280619	94.270598158325
0	174994	3040376.526679856297	22.309373575678
0	174999	3040450.086600769268	73.559920912971
0	175002	3040450.938033818611	0.851433049343
0	175011	3040532.065323431539	13.370141258822
0	175018	3040582.819330696867	37.642879566341
0	175025	3040955.745906876999	64.955911614308
0	175032	3041035.838308415992	64.513746794782
0	175041	3041216.286737605462	170.93440642204
0	175046	3041232.559420715951	16.272683110489
0	175053	3041420.347649684081	33.25099952058
0	175060	3041584.377533804029	12.500692838271
0	175067	3041663.901475107216	75.564913410239
0	175074	3041865.952607744459	6.473970856397
0	175081	3042184.102004464515	84.921652973586
0	175088	3042308.348645728192	19.138698827098
0	175095	3042402.059271378839	5.025144659595
0	175106	3042594.545971750863	42.321362942107
0	175132	3043175.132883245743	35.915246520514
0	175139	3043260.532135459656	27.577433029367
0	175146	3043315.266690370807	3.542048095733
0	175153	3043486.00259361535	6.187233173377
0	175160	3043496.069243645075	5.072635974387
0	175167	3043818.236936047907	7.523301670687
0	175174	3044116.59011891314	48.805239088163
0	175181	3044212.641408332609	50.660949746975
0	175188	3044389.491223255109	8.264904501033
0	175195	3044475.431504770049	12.813665408419
0	175202	3044548.063227080812	5.285416089488
0	175209	3044948.547628039964	2.20126292507
0	175218	3045056.69871562174	105.26808636299
0	175225	3045095.112266203151	38.413550581411
0	175230	3045150.66614008293	55.553873879779
0	175239	3045266.31405431225	89.103685021857
0	175244	3045287.251750103619	20.937695791369
0	175251	3045390.761441072569	3.485565000589
0	175258	3045402.537815985368	2.551258091808
0	175265	3045418.10415682032	14.849542062472
0	175274	3046138.49144175499	12.171293338867
0	175279	3046268.089648210679	129.59820645569
0	175286	3046314.273318660679	6.789323599453
0	175293	3046398.240382117922	9.46765978228
0	175300	3046432.652529447555	27.661548635739
0	175307	3046581.799127719478	52.844909489669
0	175314	3046711.134445952954	13.334466685959
0	175325	3046966.793858863773	123.42518315627
0	175330	3046989.842222400109	23.048363536336
0	175335	3046990.227749432657	0.385527032548
0	175342	3047135.972030908827	4.24722208401
0	175349	3047155.284283047867	16.908901770601
0	175358	3047289.622548560327	65.596346784576
0	175363	3047301.196405749541	11.573857189214
0	175370	3047349.872461760146	0.38903522708
0	175379	3047550.328491922027	109.20110430467
0	175382	3047550.540676590037	0.21218466801
0	175391	3047759.788023505928	37.978616100383
0	175400	3047866.810659147549	71.319268747102
0	175407	3047971.685247885357	104.87458873781
0	175412	3047979.408620596745	7.723372711388
0	175421	3048075.532463836781	34.708477977804
0	175426	3048076.438616540218	0.906152703437
0	175439	3048188.63452342602	105.07994724151
0	175444	3048212.07382394606	23.43930052004
0	175449	3048227.700197052956	15.626373106896
0	175454	3048262.777103549314	35.076906496358
0	175461	3048434.276561965925	3.545919638178
0	175468	3048870.460779080549	1.916463700839
0	175475	3048926.287092768539	35.801544867401
0	175484	3049289.801803662569	30.466913636064
0	175489	3049311.897424973727	22.095621311158
0	175496	3049362.354459830159	11.915730442056
0	175503	3049506.224221147346	105.22961235769
0	175510	3049529.099866440788	16.741064856914
0	175538	3050430.135021649892	93.442597049714
0	175553	3050530.92667641708	100.79165476719
0	175558	3050532.394354393083	1.467677976003
0	175563	3050535.567903566818	3.173549173735
0	175568	3050656.027543486804	120.45963991999
0	175573	3050665.14487758423	9.117334097426
0	175580	3050683.259767962493	18.114890378263
0	175585	3050690.654666621936	7.394898659443
0	175590	3050690.9889201238	0.334253501864
0	175597	3050704.072236308771	3.075267441099
0	175604	3050837.158529665711	5.509174956141
0	175611	3051114.051773869083	19.755495331389
0	175618	3051144.385670263692	11.222514024398
0	175625	3051337.100465115191	51.573239026367
0	175651	3051918.627759506817	11.950535766802
0	175658	3051989.635441666375	18.366720555625
0	175669	3052185.385924427454	24.711316852212
0	175676	3052521.026172063132	3.568355211833
0	175683	3052620.332905146736	89.534157514887
0	175692	3052873.565393062824	44.893796928511
0	175697	3052921.53765266221	47.972259599386
0	175704	3053077.550641399	103.3951096295
0	175711	3053210.826873899714	40.77805695292
0	175722	3053478.054887197811	87.023113670703
0	175727	3053618.186994660737	140.13210746293
0	175734	3053707.20132899423	89.014334333493
0	175739	3053708.709096453167	1.507767458937
0	175746	3053793.415301688049	34.019925581535
0	175753	3053860.998383894663	20.679915244461
0	175762	3053970.444742494927	6.987386615974
0	175767	3054017.491929501139	47.047187006212
0	175774	3054159.28001492149	34.117012900903
0	175781	3054314.392491795467	17.440629975799
0	175788	3054395.790305123666	9.512933891068
0	175795	3054432.03394099344	17.992025984977
0	175802	3054539.191574065618	57.244386792453
0	175809	3054627.466202185367	20.774325419703
0	175816	3054729.423574143816	54.307750538825
0	175825	3054983.721514375567	72.905777834937
0	175832	3054986.20243038497	2.480916009403
0	175837	3055041.259515992521	55.057085607551
0	175846	3055156.343985292056	95.699267607778
0	175851	3055181.088415967488	24.744430675432
0	175858	3055193.829847728419	5.344691134274
0	175869	3055311.204897137796	89.906580507201
0	175874	3055327.452808311616	16.24791117382
0	175885	3055383.822569016693	56.369760705077
0	175890	3055400.308635028547	16.486066011854
0	175895	3055466.593423769707	66.28478874116
0	175900	3055478.1284972497	11.535073479993
0	175907	3055509.057480218794	17.517515821657
0	175914	3055913.302530310759	18.070079291017
0	175921	3055971.38409415934	5.095289788484
0	175928	3056200.88608362898	33.973463607145
0	175935	3056432.875275062901	6.840202442225
0	175942	3056591.672697233686	4.539315560406
0	175949	3056815.328324434093	33.695250864169
0	176088	3060124.451863981622	18.475144636712
0	176093	3060129.040003107474	4.588139125852
0	176098	3060131.972071879217	2.932068771743
0	176110	3060201.605994475524	69.633922596307
0	176117	3060252.382920702628	50.776926227104
0	176122	3060266.17293803528	13.790017332652
0	176129	3060314.713314911728	48.540376876448
0	176134	3060346.092600300383	31.379285388655
0	176139	3060387.980566662721	41.887966362338
0	176144	3060390.694543896279	2.713977233558
0	176149	3060397.095002389673	6.400458493394
0	176154	3060421.091141550059	23.996139160386
0	176161	3060443.318717252053	22.227575701994
0	176166	3060499.799672287212	56.480955035159
0	176171	3060506.516370041686	6.716697754474
0	176176	3060514.843354492671	8.326984450985
0	176183	3060695.716978091612	180.87362359894
0	176188	3060699.110974227991	3.393996136379
0	176197	3060754.266060721877	25.075014302895
0	176202	3060823.843669424801	69.577608702924
0	176209	3060852.912468125033	22.153707125559
0	176216	3060953.484146474772	74.577396144166
0	176225	3061378.690341857385	32.579696234303
0	176230	3061392.868455589242	14.178113731857
0	176237	3061483.253228330015	10.523855023727
0	176244	3061518.085618116826	10.479873353467
0	176251	3061641.586355918761	4.415711872738
0	176258	3061796.827791437905	5.425420382899
0	176265	3061840.40079237201	32.102777953706
0	176272	3061995.402857326674	27.820103266521
0	176279	3062090.696428394214	35.602288503448
0	176286	3062368.751238935247	27.006244414026
0	176293	3062485.083252378046	28.805343255613
0	176302	3062538.482757500742	32.946145594884
0	176307	3062624.223375629465	85.740618128723
0	176314	3062650.186114976808	5.295585024489
0	176321	3062687.969212821542	11.654006276151
0	176328	3063043.213933602304	19.298458256912
0	176335	3063268.907881192621	3.536750409662
0	176344	3063358.23670948629	7.302511915131
0	176349	3063366.621963048745	8.385253562455
0	176358	3063464.183117843308	85.353480508815
0	176365	3063489.983165536138	25.80004769283
0	176372	3063567.044429833722	77.061264297584
0	176381	3063597.773614552428	30.729184718706
0	176386	3063618.227022399719	20.453407847291
0	176391	3063643.373278351286	25.146255951567
0	176398	3063782.962445098455	39.454506129346
0	176405	3064111.939734571863	28.538075696097
0	176412	3064193.442597993606	5.647138973732
0	176421	3064308.047066572516	55.929907462052
0	176426	3064315.537433174084	7.490366601568
0	176433	3064502.831722243446	23.33706517374
0	176440	3064619.451677948515	2.196721990855
0	176451	3064821.420126356492	139.81107046088
0	176458	3064900.910809157761	79.490682801269
0	176467	3065001.767974119448	100.85716496169
0	176474	3065008.976208086639	7.208233967191
0	176479	3065036.408728957074	27.432520870435
0	176484	3065083.395275555816	46.986546598742
0	176489	3065100.879086688428	17.483811132612
0	176496	3065313.292282694504	0.152886439798
0	176503	3065450.15762610838	27.268759150218
0	176510	3065475.759386611963	5.603101137857
0	176517	3065551.10647726637	25.310378033504
0	176524	3065755.18036834082	48.001369975431
0	176531	3065810.953261035213	39.942093388294
0	176538	3065863.247070263487	28.804772548924
0	176549	3066053.382115970046	66.152102171291
0	176556	3066064.140003385968	10.757887415922
0	176561	3066084.19722141942	20.057218033452
0	176566	3066114.734334021591	30.537112602171
0	176573	3066204.057716808492	76.188850660868
0	176582	3066230.103406111561	8.440148690078
0	176589	3066257.063950272936	26.960544161375
0	176594	3066320.12294165561	63.058991382674
0	176601	3066383.75973855004	56.332007744241
0	176610	3066502.066377560709	98.18842862098
0	176615	3066505.556647789812	3.490270229103
0	176622	3066584.782970115853	4.047984625858
0	176629	3066609.419620965128	12.351077742538
0	176642	3066841.579228385615	156.1800531662
0	176647	3066845.888033681019	4.308805295404
0	176652	3066847.166150639387	1.278116958368
0	176657	3066869.0560931224	21.889942483013
0	176664	3066901.459546202997	21.024419670377
0	176671	3067025.245893321098	17.367297976756
0	176680	3067052.26960343868	20.608325794389
0	176685	3067063.442539194052	11.172935755372
0	176692	3067264.542158023932	158.9955615512
0	176701	3067376.157613685201	45.586643186256
0	176706	3067383.013275978307	6.855662293106
0	176715	3067493.372548334628	95.487907252349
0	176720	3067521.569830092347	28.197281757719
0	176727	3067638.204353720965	45.291305266964
0	176734	3067684.341474152705	5.707945230487
0	176741	3067689.996352965935	4.467701521842
0	176748	3067819.871989830315	10.56400637201
0	176755	3068022.4338800348	48.526492469105
0	176762	3068217.523358845453	58.366998292661
0	176771	3068336.296724700719	45.949264009224
0	176776	3068361.576073858238	25.279349157519
0	176783	3068429.996148172327	23.850522662747
0	176790	3068708.268429473108	31.573816656628
0	176819	3069496.643831112218	46.628677621303
0	176824	3069578.919434504015	82.275603391797
0	176831	3069623.622766733944	44.703332229929
0	176836	3069640.452254397235	16.829487663291
0	176841	3069688.217023174411	47.764768777176
0	176846	3069689.106029447951	0.88900627354
0	176851	3069709.05363676502	19.947607317069
0	176858	3069784.934728593539	6.378070947128
0	176869	3069932.838353762618	53.889369263262
0	176876	3070042.937867531157	1.508921977907
0	176883	3070182.804765995698	18.981187578238
0	176890	3070228.075301269362	21.863325540713
0	176897	3070385.807238072047	11.135729397344
0	176904	3070482.28299858758	58.857196005189
0	176911	3070560.315816003802	60.145259549498
0	176918	3070990.967264793478	17.899162063023
0	176925	3071124.798012318164	46.226781056549
0	176932	3071357.354161176483	6.483428041545
0	176939	3071557.22792610834	82.154452685767
0	176948	3071630.669702135648	65.692271428176
0	176955	3071659.51653524591	28.846833110262
0	176962	3071790.24940151703	130.73286627112
0	176969	3071839.514927236358	49.265525719328
0	176974	3071847.708022358373	8.193095122015
0	176981	3072124.15563149817	145.10655714761
0	176988	3072256.025869692401	24.25934760184
0	176995	3072310.246612064124	4.739468585702
0	177004	3072466.885816113169	20.91531723741
0	177009	3072532.308409860366	65.422593747197
0	177018	3072858.320112999802	116.20869639509
0	177025	3072959.862611392709	101.54249839291
0	177034	3072999.444563614217	39.581952221508
0	177039	3073085.761142007553	86.316578393336
0	177044	3073106.018767532903	20.25762552535
0	177053	3073162.923031361154	28.018330782034
0	177058	3073174.200885181828	11.277853820674
0	177065	3073202.729203137987	26.753687150452
0	177168	3075768.474631773646	67.482911708378
0	177173	3075794.935757570732	26.461125797086
0	177178	3075811.105749162764	16.169991592032
0	177187	3075872.870606089367	61.764856926603
0	177192	3076043.81458026141	170.94397417204
0	177197	3076080.642088251316	36.827507989906
0	177202	3076148.509603328234	67.867515076918
0	177209	3076217.22619826919	68.716594940956
0	177214	3076223.208775739441	5.982577470251
0	177223	3076258.91648657893	10.871230364906
0	177228	3076310.918392971385	52.001906392455
0	177239	3076683.950112092066	5.557503345772
0	177246	3076717.536907908975	15.17926309181
0	177259	3076876.296712742206	153.28638864371
0	177264	3076953.539364434267	77.242651692061
0	177269	3076962.965793581385	9.426429147118
0	177274	3077015.844610201737	52.878816620352
0	177283	3077592.922225085474	52.205050734481
0	177288	3077601.653929992024	8.73170490655
0	177295	3077798.228950896825	139.41133681351
0	177302	3077956.441580470376	103.61268344811
0	177309	3078036.957130407191	33.752145714949
0	177316	3078303.817272514697	7.941866634655
0	177327	3078559.18716834663	141.8864021498
0	177330	3078560.123016455526	0.935848108896
0	177337	3078562.258917430533	2.135900975007
0	177344	3078580.327269175883	8.148470024379
0	177351	3078697.089252044076	8.720517279735
0	177360	3078760.444409080421	50.768745657841
0	177365	3078765.255906015115	4.811496934694
0	177372	3078922.372099845386	20.752111153484
0	177464	3080939.052343601552	32.162046625338
0	177469	3080940.26718184604	1.214838244488
0	177474	3080970.02669269174	29.7595108457
0	177483	3081005.459285924617	35.432593232877
0	177488	3081029.054669830794	23.595383906177
0	177493	3081068.923858806897	39.869188976103
0	177500	3081247.936703241411	73.087136767529
0	177509	3081503.261068651314	67.731777333513
0	177516	3081520.785791997922	17.524723346608
0	177521	3081556.892108655782	36.10631665786
0	177528	3081706.386277554276	3.548178167745
0	177535	3082335.362713427096	78.927434866444
0	177542	3082396.482364042852	7.508854536067
0	177549	3082482.663101680816	28.278289738884
0	177556	3082740.319222514224	12.911077466452
0	177563	3082829.374219287154	20.792032415067
0	177572	3082939.074258127069	42.105850381733
0	177577	3082971.727437714789	32.65317958772
0	177584	3083050.236720414887	17.783273593453
0	177595	3083320.484094270304	71.545974465996
0	177600	3083326.147462509159	5.663368238855