version 2
run Simulations-72-20191218-11:09:26-65753
attr configname Simulations
attr datetime 20191218-11:09:26
attr experiment Simulations
attr inifile omnetpp.ini
attr iterationvars "$seed=65, $0=11000"
attr iterationvarsf seed=65,11000-
attr measurement "$seed=65, $0=11000"
attr network WifiCelNetPassiveQueue
attr processid 65753
attr repetition 0
attr replication #0
attr resultdir results/Simulations/omnet
attr runnumber 72
attr seedset 65
itervar seed 65
param **.numJobs 10000
param *.OFFLOAD.deadline exponential(11000s)
param *.source.interArrivalTime exponential(120s)
param *.WIFI.serviceTime exponential(40s)
param *.CELL.serviceTime exponential(400s)
param *.OFFLOAD.switchToWi exponential(1524s)
param *.OFFLOAD.switchToCel exponential(3120s)
param *.LOCAL.serviceTime exponential(5s)
param *.REMOTE.serviceTime exponential(1s)

vector 0 WifiCelNetPassiveQueue.WIFI serviceTime:vector ETV
attr interpolationmode none
attr title "wifi Service, vector"
attr unit s
vector 1 WifiCelNetPassiveQueue.WIFI responseTime:vector ETV
attr interpolationmode none
attr title "Response Time, vector"
attr unit s
vector 2 WifiCelNetPassiveQueue.REMOTE serviceTime:vector ETV
attr interpolationmode none
attr title "wifi Service, vector"
attr unit s
vector 3 WifiCelNetPassiveQueue.REMOTE responseTime:vector ETV
attr interpolationmode none
attr title "Response Time, vector"
attr unit s
vector 4 WifiCelNetPassiveQueue.sink lifeTime:vector ETV
attr interpolationmode none
attr title "lifetime of arrived jobs, vector"
attr unit s
vector 5 WifiCelNetPassiveQueue.OFFLOAD queueLength:vector ETV
attr interpolationmode sample-hold
attr title "queue length, vector"
vector 6 WifiCelNetPassiveQueue.OFFLOAD storeCelTime:vector ETV
attr interpolationmode none
attr title "Time in Cell, vector"
attr unit s
vector 7 WifiCelNetPassiveQueue.OFFLOAD storeDeadline:vector ETV
attr interpolationmode none
attr title "deadline, vector"
attr unit s
vector 8 WifiCelNetPassiveQueue.CELL serviceTime:vector ETV
attr interpolationmode none
attr title "wifi Service, vector"
attr unit s
vector 9 WifiCelNetPassiveQueue.CELL responseTime:vector ETV
attr interpolationmode none
attr title "Response Time, vector"
attr unit s
vector 10 WifiCelNetPassiveQueue.OFFLOAD storeWifiTime:vector ETV
attr interpolationmode none
attr title "Time in Wifi, vector"
attr unit s
vector 11 WifiCelNetPassiveQueue.REMOTE queueLength:vector ETV
attr interpolationmode sample-hold
attr title "queue length, vector"
vector 12 WifiCelNetPassiveQueue.LOCAL serviceTime:vector ETV
attr interpolationmode none
attr title "wifi Service, vector"
attr unit s
vector 13 WifiCelNetPassiveQueue.LOCAL responseTime:vector ETV
attr interpolationmode none
attr title "Response Time, vector"
attr unit s
vector 14 WifiCelNetPassiveQueue.LOCAL queueLength:vector ETV
attr interpolationmode sample-hold
attr title "queue length, vector"
0	176474	3000241.813399628089	78.224175773835
0	176481	3000567.342344539723	45.247074699403
0	176488	3000638.397128538886	49.108983460801
0	176499	3000784.591912347837	60.30594234837
0	176504	3000853.547226883612	68.955314535775
0	176513	3000934.672952559136	81.125725675524
0	176518	3000964.129664709461	29.456712150325
0	176523	3000977.773237213857	13.643572504396
0	176530	3001282.043767032874	28.0942736274
0	176537	3001302.579424283352	2.972483673019
0	176585	3002227.532792506263	15.370880263997
0	176590	3002248.967587534882	21.434795028619
0	176595	3002270.493103204474	21.525515669592
0	176600	3002328.881190760289	58.388087555815
0	176605	3002345.936858848231	17.055668087942
0	176612	3002839.732971925308	45.920666699116
0	176619	3002878.068854163027	8.641930352912
0	176626	3002990.030008312154	40.779779919508
0	176633	3003054.744483112677	49.6666912436
0	176648	3003154.400972515513	95.68804807876
0	176653	3003222.25831611166	67.857343596147
0	176660	3003264.778742956001	42.520426844341
0	176665	3003279.313450646478	14.534707690477
0	176678	3003408.670058756441	57.542145620142
0	176683	3003448.570639873051	39.90058111661
0	176688	3003461.490268537256	12.919628664205
0	176693	3003469.658439501864	8.168170964608
0	176700	3003555.692271682735	8.6875213658
0	176707	3003763.875008905005	18.263712740911
0	176714	3003817.813943131611	1.394457624732
0	176725	3004067.425407885955	115.33502111577
0	176730	3004071.178411659334	3.753003773379
0	176735	3004082.68332831058	11.504916651246
0	176742	3004220.245418605749	16.680558744942
0	176749	3004336.529232781796	103.26627621279
0	176756	3004540.815758669699	6.994680832753
0	176763	3004612.179305555793	70.277398995509
0	176770	3004644.550857910313	2.795557661617
0	176777	3004669.288834144148	3.451680316966
0	176784	3004808.753717943229	15.587130286155
0	176791	3004875.253731185817	17.762876730928
0	176798	3004914.339956468843	7.843785834125
0	176805	3005055.687559841195	6.250811560329
0	176812	3005195.903087866816	7.080606021144
0	176819	3005295.406942500775	17.412882480168
0	176827	3005364.703695724584	17.508527433816
0	176842	3005749.554600830696	32.696011206556
0	176847	3005757.421927689239	7.867326858543
0	176852	3005768.045851091091	10.623923401852
0	176859	3006209.179105960092	20.29189605393
0	176866	3006260.853590383777	49.347996399266
0	176873	3006374.32759090339	112.14556730171
0	176882	3006561.172888172387	145.46392125911
0	176895	3006677.511776862419	116.33888869003
0	176904	3006719.76833784114	42.256560978721
0	176909	3006775.295977376163	55.527639535023
0	176914	3006817.957364457401	42.661387081238
0	176927	3006944.93464882701	126.97728436961
0	176936	3007027.627654980567	82.693006153557
0	176941	3007034.499932157419	6.872277176852
0	176946	3007127.563500098738	93.063567941319
0	176951	3007174.671976529839	47.108476431101
0	176958	3007216.204069231959	41.53209270212
0	176965	3007261.216519180389	45.01244994843
0	176970	3007265.983434272443	4.766915092054
0	176975	3007308.501838092354	42.518403819911
0	176982	3007362.643449599487	5.722429673519
0	176989	3007426.191715372815	2.938334551745
0	176996	3007633.641914968748	102.39371885219
0	177003	3007728.772007445395	77.773487365601
0	177010	3007860.045631489179	34.298089196906
0	177021	3008024.796415288182	40.406946671001
0	177026	3008067.486622881539	42.690207593357
0	177033	3008120.602360344692	53.115737463153
0	177038	3008146.431899331606	25.829538986914
0	177045	3008453.9888068076	12.803283735816
0	177052	3008469.185851431743	6.876329324695
0	177059	3008657.084352094553	53.947120720043
0	177066	3008752.029955324218	22.749884212163
0	177073	3008857.186843749705	33.775365941677
0	177080	3008906.966848181431	2.147396642473
0	177089	3009412.625589126863	16.578028936888
0	177094	3009420.076996808002	7.451407681139
0	177101	3009463.196763801899	32.859391787621
0	177108	3009844.875271216822	78.641262504022
0	177115	3010095.971222827034	29.039256432908
0	177122	3010108.888463895625	7.215132485781
0	177129	3010517.815247622581	30.239527039686
0	177138	3010540.859821627947	13.529291281361
0	177143	3010569.704951190363	28.845129562416
0	177185	3012075.507006575558	23.779024467238
0	177198	3012460.31691851424	384.80991193868
0	177203	3012468.644246576483	8.327328062243
0	177208	3012506.86883119324	38.224584616757
0	177213	3012563.466926776344	56.598095583104
0	177218	3012595.859115725364	32.39218894902
0	177225	3012660.628781984936	64.769666259572
0	177230	3012736.2137688655	75.584986880564
0	177235	3012772.932724907228	36.718956041728
0	177240	3012804.530955837892	31.598230930664
0	177245	3012832.873301655542	28.34234581765
0	177252	3012885.978897824702	31.194333382842
0	177259	3012937.909478106569	44.373102874925
0	177266	3012983.108901321944	14.685037976587
0	177273	3013195.722184076008	6.482840920599
0	177280	3013734.138830551271	45.062417088399
0	177289	3013834.716968768264	19.088536481384
0	177296	3013915.130159080315	80.413190312051
0	177301	3013960.768589871042	45.638430790727
0	177310	3014375.051045774062	69.656503814775
0	177317	3014454.29800692067	79.246961146608
0	177322	3014528.786054387619	74.488047466949
0	177329	3014711.945464657209	4.931617701383
0	177336	3015425.756328074519	61.226018511392
0	177343	3015524.838329602821	52.163586041439
0	177352	3015759.058119430603	29.738984551461
0	177355	3015761.671260425184	2.613140994581
0	177368	3015801.37853161279	39.681178230318
0	177373	3015817.40622652954	16.02769491675
0	177378	3015878.677081611626	61.270855082086
0	177385	3016044.36245862132	52.067574095197
0	177394	3016166.360484815745	30.776489929509
0	177399	3016216.641162078239	50.280677262494
0	177406	3016264.565366421646	5.542773986782
0	177413	3016585.356158045149	17.266675477468
0	177420	3016617.778915929149	22.194797177894
0	177431	3016735.633719077356	101.11989749151
0	177467	3017995.961124460755	20.561584300654
0	177474	3018053.255434353078	57.294309892323
0	177479	3018055.679925472404	2.424491119326
0	177484	3018094.685300573834	39.00537510143
0	177493	3018380.848310425811	286.16300985198
0	177502	3018413.229859458423	32.381549032612
0	177509	3018429.047236701605	15.817377243182
0	177514	3018470.050991298257	41.003754596652
0	177519	3018496.671745249536	26.620753951279
0	177524	3018510.942394187051	14.270648937515
0	177529	3018513.938573825664	2.996179638613
0	177534	3018518.502045439015	4.563471613351
0	177584	3020390.918484139961	56.723582470091
0	177589	3020423.436827325677	32.518343185716
0	177594	3020469.383230216643	45.946402890966
0	177605	3020523.347606806414	10.617219898719
0	177616	3020704.412653315732	19.652362886871
0	177621	3020739.598434572582	35.18578125685
0	177626	3020781.473221567287	41.874786994705
0	177637	3020942.376697237932	46.232458934179
0	177642	3020985.555698805375	43.179001567443
0	177647	3021008.130048895539	22.574350090164
0	177654	3021338.830718942408	60.721975503885
0	177661	3021372.154413109927	20.731041213495
0	177668	3021549.857952045631	17.10746784586
0	177675	3021660.598394058342	9.309872839987
0	177682	3021747.757898366371	17.870502601108
0	177689	3021846.400012649583	5.884945550213
0	177696	3021940.667298969048	23.101256343341
0	177703	3022383.975591359973	20.031739870935
0	177710	3022924.12670072571	50.740164798008
0	177717	3023081.299329380371	9.475406548414
0	177726	3023169.144129066688	5.826712630709
0	177732	3023202.12851132198	32.984382255292
0	177807	3025438.766345071943	11.077072323939
0	177812	3025465.602663191509	26.836318119566
0	177817	3025477.731292582611	12.128629391102
0	177822	3025511.567364995547	33.836072412936
0	177833	3025551.854816180145	40.287451184598
0	177840	3025600.045258464952	48.190442284807
0	177847	3025674.185081214589	74.139822749637
0	177852	3025683.170087037723	8.985005823134
0	177861	3025879.155759692238	120.9435776353
0	177866	3025883.733325031483	4.577565339245
0	177875	3025934.903308655975	45.995539543194
0	177880	3025963.624830925342	28.721522269367
0	177887	3026096.407172033315	18.094983553443
0	177894	3026204.373856889487	23.591106283152
0	177901	3026301.460630138636	0.849719479127
0	177908	3026406.776791751565	26.802401152789
0	177915	3026435.929521337946	14.810887265519
0	177926	3026672.881419225694	105.51901664196
0	177931	3026716.702439218646	43.821019992952
0	177936	3026727.069442718159	10.367003499513
0	177943	3026933.624293372452	65.526898628616
0	177950	3026955.737023864058	9.125635955755
0	177957	3027339.209065812864	9.091505922448
0	177964	3027408.822702664651	55.979378813654
0	177971	3027726.748171522681	24.883038470556
0	177982	3027913.479615623347	59.427140826129
0	177987	3027924.237358012363	10.757742389016
0	177992	3027963.004387849545	38.767029837182
0	177999	3028000.921390178602	34.053479505435
0	178006	3028120.190116374754	29.972891778432
0	178013	3028410.845970374611	41.411284433185
0	178022	3028436.785361510456	8.330462548827
0	178027	3028461.512138026106	24.72677651565
0	178034	3028502.629868606192	16.842479795668
0	178041	3028567.342373694315	53.647927613312
0	178085	3030622.148130860933	4.122323338034
0	178090	3030667.413325108932	45.265194247999
0	178095	3030713.94143286952	46.528107760588
0	178100	3030719.388627675713	5.447194806193
0	178105	3030724.960309026143	5.57168135043
0	178110	3030774.385887114216	49.425578088073
0	178115	3030788.081027841066	13.69514072685
0	178124	3030819.991040129385	3.302964702771
0	178129	3030886.066247762102	66.075207632717
0	178138	3031398.820066071564	17.220249469113
0	178149	3031901.800389123024	5.90140528894
0	178158	3032317.619363837225	135.11719967467
0	178165	3032330.976350227927	13.356986390702
0	178170	3032355.179344502358	24.202994274431
0	178178	3032566.57495777281	29.462244205758
0	178210	3033406.778003534543	8.912556614529
0	178215	3033416.465394784358	9.687391249815
0	178220	3033420.950458416907	4.485063632549
0	178229	3033438.258053448951	17.307595032044
0	178234	3033451.982007702217	13.723954253266
0	178239	3033459.517481542171	7.535473839954
0	178244	3033481.361669474676	21.844187932505
0	178249	3033524.981756244303	43.620086769627
0	178256	3033882.524869160436	3.857746786239
0	178263	3033903.571672310205	0.901834951161
0	178270	3034137.579502919246	149.85359715083
0	178279	3034183.200440450101	12.268776126714
0	178284	3034255.872679956257	72.672239506156
0	178291	3034604.713642569577	1.375764019526
0	178298	3034697.72350921468	1.950847016634
0	178305	3034875.755169671155	10.604863789589
0	178314	3035163.121120057869	18.223970385592
0	178319	3035174.889808982259	11.76868892439
0	178326	3035433.06951832873	8.797350141662
0	178333	3035565.271937189122	48.24938311507
0	178340	3035667.138156354232	70.565885824267
0	178347	3035702.354322012619	0.499115585921
0	178358	3035993.622992426209	68.205511385177
0	178363	3035998.880483392977	5.257490966768
0	178368	3036005.016193483906	6.135710090929
0	178377	3036049.684659582916	41.43247209706
0	178382	3036053.243473387904	3.558813804988
0	178389	3036074.293996721385	3.62206965461
0	178396	3036120.703379924698	2.435907432407
0	178403	3036180.577987100834	33.34234827385
0	178410	3036306.154966597109	6.20443287853
0	178421	3036399.375579629636	56.005948230805
0	178432	3036466.067835984028	66.692256354392
0	178437	3036480.23680838766	14.168972403632
0	178442	3036496.91025604911	16.67344766145
0	178449	3036637.560339208196	140.65008315909
0	178456	3036700.254977609842	62.694638401646
0	178507	3037897.167215538015	59.667319321571
0	178512	3037994.714980013632	97.547764475617
0	178517	3038001.71889609417	7.003916080538
0	178524	3038070.124204148469	68.405308054299
0	178529	3038097.09359687207	26.969392723601
0	178534	3038112.576745660698	15.483148788628
0	178539	3038173.698025724567	61.121280063869
0	178544	3038212.518532715629	38.820506991062
0	178553	3038263.922486036847	51.403953321218
0	178558	3038270.251414537115	6.328928500268
0	178565	3038366.606598622033	3.129782966148
0	178572	3038392.880954410065	25.265783042108
0	178579	3038488.716016488421	18.957674994383
0	178588	3038595.631306443329	32.141296095864
0	178593	3038604.288264044253	8.656957600924
0	178600	3038685.697089069665	13.55584869948
0	178607	3039065.061468438433	28.720655916934
0	178614	3039127.072914291337	0.277146184455
0	178621	3039385.673646819124	51.926049475884
0	178628	3039554.879549616392	26.170592151782
0	178635	3039581.392912644513	11.030376633149
0	178642	3039656.731087018084	4.414612219107
0	178651	3039726.465558971174	32.979329327935
0	178656	3039746.520762820675	20.055203849501
0	178663	3039953.929038334321	107.22766648231
0	178672	3040155.381348505244	125.3049828519
0	178677	3040205.698043288775	50.316694783531
0	178684	3040387.399214505769	6.120112804536
0	178691	3040512.25118432743	84.154433498376
0	178698	3040887.587864656922	18.675079480522
0	178705	3040911.262639737988	21.526022637837
0	178714	3041165.406621679882	35.632021353713
0	178719	3041237.564136617988	72.157514938106
0	178726	3041306.328465695061	21.537000448648
0	178733	3041413.40681996828	7.584534674178
0	178744	3041747.176694078648	253.81539253484
0	178749	3041776.380286926851	29.203592848203
0	178754	3041815.960828376716	39.580541449865
0	178765	3041939.649924339133	68.485621344547
0	178774	3042079.642269437492	139.99234509836
0	178781	3042094.340169128935	14.697899691443
0	178786	3042209.848096882242	115.50792775331
0	178791	3042212.664700238648	2.816603356406
0	178796	3042234.822376000306	22.157675761658
0	178803	3042428.985048201866	2.745179109139
0	178810	3042559.482419808865	5.100148929341
0	178817	3042608.547134991875	38.693259350605
0	178824	3042733.192753684146	17.067301672587
0	178831	3042819.156761856118	7.753770729266
0	178838	3042929.265756539869	8.409147304106
0	178845	3043039.571414301285	20.738387081812
0	178852	3043152.853015016225	10.574088395617
0	178859	3043422.111759682323	25.221491579468
0	178868	3043500.958140149882	48.358217710464
0	178873	3043550.666662757438	49.708522607556
0	178880	3044091.50289616055	73.207351198138
0	178919	3045845.288906816051	79.567555027728
0	178924	3045850.16555863757	4.876651821519
0	178930	3045920.19655033533	70.03099169776
0	178935	3045944.471613498991	24.275063163661
0	178938	3045944.538984382215	0.067370883224
0	178945	3045948.304626053263	3.765641671048
0	178952	3046056.655302523733	108.35067647047
0	178965	3046241.028193342101	184.37289081837
0	178970	3046246.732595072176	5.704401730075
0	178977	3046282.665396454645	35.932801382469
0	178982	3046363.826062791791	81.160666337146
0	178987	3046470.812759146294	106.9866963545
0	178992	3046502.643255990613	31.830496844319
0	178997	3046507.563235850347	4.919979859734
0	179002	3046514.914445681994	7.351209831647
0	179009	3046542.03830191794	19.669410458164
0	179018	3046664.296521618814	14.307207473118
0	179023	3046668.16783441431	3.871312795496
0	179032	3046902.063409299241	35.872586420312
0	179037	3046904.677075779493	2.613666480252
0	179044	3046952.939067745219	2.468729880852
0	179055	3047449.756709819388	264.90646732375
0	179060	3047564.933305264856	115.17659544547
0	179065	3047581.781627688122	16.848322423266
0	179072	3047628.380703354627	27.308654992082
0	179081	3047748.549320134621	28.972946215055
0	179086	3047786.252039243282	37.702719108661
0	179095	3047833.791319114085	8.581612404843
0	179102	3047924.424501032248	90.633181918163
0	179107	3047928.685645361642	4.261144329394
0	179114	3047985.837920620377	14.342494316002
0	179121	3048150.164924621456	0.735356595865
0	179128	3048227.149283542185	47.448982941056
0	179135	3048417.749181143359	97.894043264241
0	179142	3048547.854657998039	3.312868750148
0	179149	3048601.31597803031	3.139077620443
0	179156	3048695.512232257723	8.908296897883
0	179163	3048727.741992513978	18.814365625349
0	179172	3048980.088344011116	27.007866990083
0	179179	3049047.662324537986	67.57398052687
0	179184	3049070.028918504761	22.366593966775
0	179191	3049163.864851056949	12.681926483546
0	179198	3049239.776409395971	16.531013576394
0	179205	3049343.20062720372	25.848241141732
0	179214	3049749.047205907155	60.411363855817
0	179219	3049752.9355301758	3.888324268645
0	179230	3049995.25414764873	227.18010709051
0	179235	3050002.94100564245	7.68685799372
0	179240	3050019.156745018459	16.215739376009
0	179249	3050137.344293306149	14.513869733522
0	179254	3050157.082373699182	19.738080393033
0	179261	3050318.363591630383	60.616989710497
0	179268	3050377.546715688444	21.555939811055
0	179275	3050425.159939595483	39.363727808023
0	179282	3050659.034741617016	33.811476399005
0	179289	3050737.675687662427	75.534755301362
0	179296	3050838.033949365379	26.059477923562
0	179303	3051008.85463598989	70.679809187382
0	179310	3051033.153085732541	14.378537433477
0	179317	3051222.096966910916	2.76177511382
0	179324	3051427.561547005929	13.689895058151
0	179333	3051575.696212277807	65.097690721187
0	179340	3051651.869804994937	76.17359271713
0	179345	3051663.427023448158	11.557218453221
0	179352	3052229.733085013853	79.498225437751
0	179359	3052797.501009110253	42.751470020096
0	179366	3052851.742272470333	16.810053855922
0	179377	3053016.655917185925	65.746665043257
0	179382	3053019.854357000045	3.19843981412
0	179389	3053069.294725995454	49.440368995409
0	179394	3053155.588715419308	86.293989423854
0	179405	3053263.168112358741	75.363011593383
0	179408	3053263.350357719505	0.182245360764
0	179415	3053289.065941075292	25.715583355787
0	179422	3053348.137480467049	7.628552507193
0	179433	3053399.97170296269	25.933927293776
0	179438	3053408.157484791144	8.185781828454
0	179441	3053409.517312547293	1.359827756149
0	179450	3053495.191494746252	17.445423954608
0	179457	3053582.851935535749	23.020293053525
0	179466	3053693.781266379933	25.921788644997
0	179471	3053704.947962352415	11.166695972482
0	179478	3054205.573991487908	5.943880194141
0	179485	3054250.643846073999	25.002083967795
0	179492	3054414.892295851	0.297769960091
0	179503	3054523.495932875015	91.541832650528
0	179508	3054568.639496629029	45.143563754014
0	179513	3054583.03096603904	14.391469410011
0	179520	3054685.631954504403	1.760795136039
0	179531	3054959.021633757779	23.986973667983
0	179536	3055053.839405242073	94.817771484294
0	179541	3055098.695484146754	44.856078904681
0	179550	3055464.256289624376	22.044589648703
0	179555	3055478.472841378059	14.216551753683
0	179562	3055607.385472051852	36.3366977565
0	179569	3055750.000547327132	43.32526129219
0	179578	3055851.812695836213	35.460120912631
0	179581	3055852.421268179385	0.608572343172
0	179590	3056023.24735537173	3.230830756529
0	179597	3056099.367537135627	30.551353599123
0	179604	3056147.886082327343	12.00263202782
0	179613	3056320.328879147909	26.402440148333
0	179618	3056438.912812180879	118.58393303297
0	179625	3056470.116771638788	27.66717107367
0	179632	3056589.579438060928	21.322413206462
0	179639	3056661.790313048702	43.123143746916
0	179646	3056869.520824534294	31.00818675705
0	179653	3057349.889133087947	35.536756490075
0	179660	3057435.552908933256	68.354813820874
0	179667	3057467.055327558332	30.061286130112
0	179674	3057518.439435921326	36.579476317128
0	179681	3057550.747192244082	29.104318918236
0	179688	3057596.686758907594	3.236211273662
0	179695	3058036.309644598107	32.623696928932
0	179702	3058101.015299145559	53.433111174423
0	179711	3058242.225609532718	91.080743090365
0	179716	3058247.040994477844	4.815384945126
0	179725	3058838.653656935445	125.17245514825
0	179730	3058865.226834920389	26.573177984944
0	179737	3059000.613279868932	86.759760591715
0	179744	3059150.288129640466	80.896996843824
0	179753	3059530.762605145814	92.127268397391
0	179758	3059534.911137600901	4.148532455087
0	179765	3059623.849721559263	39.525816485039
0	179772	3059758.740244391277	13.026678454619
0	179781	3060237.803820649176	71.913180122911
0	179786	3060243.139960367641	5.336139718465
0	179795	3060494.866025546737	37.326141787574
0	179800	3060546.939684452438	52.073658905701
0	179809	3060985.568818634552	162.59592428199
0	179816	3061007.513019168697	21.944200534145
0	179821	3061038.398794009361	30.885774840664
0	179834	3061094.840024818565	49.08397272485
0	179839	3061102.908361460408	8.068336641843
0	179846	3061237.837982235127	134.92962077472
0	179851	3061240.077455142058	2.239472906931
0	179856	3061290.30859469074	50.231139548682
0	179863	3061513.352803474155	31.149668589359
0	179872	3061615.381596112584	59.772758651328
0	179877	3061664.728664472058	49.347068359474
0	179886	3061778.585513359535	65.753666883524
0	179891	3061787.533049835697	8.947536476162
0	179898	3062201.133091871244	50.050011251371
0	179905	3062280.149408742597	29.839045936205
0	179912	3062404.753758696435	14.85396504041
0	179919	3062687.524441473571	15.216045389182
0	179926	3062734.214133126281	18.352017947913
0	179933	3062996.197300558281	9.005889560499
0	179942	3063249.202484644439	125.01946573328
0	179947	3063259.718408929839	10.5159242854
0	179954	3063360.537292237311	24.138965503164
0	179963	3063460.294101145351	56.336831624499
0	179968	3063502.908759487429	42.614658342078
0	179975	3063592.348139414129	0.942149076867
0	179982	3063968.700739564966	19.084903556799
0	179989	3064424.130810061438	33.594011231611
0	179996	3064563.026268099155	33.308858369295
0	180003	3064920.008747458904	38.69155878011
0	180010	3065013.255207617461	32.854840537621
0	180017	3065124.717967145515	4.301074441289
0	180024	3065343.594991023547	71.926990990383
0	180031	3065812.660390812356	33.854757689693
0	180038	3065987.074923768131	9.499755624932
0	180045	3066026.534482864316	21.05592814234
0	180052	3066088.20191606045	44.84030068539
0	180059	3066195.494583013006	8.045265484474
0	180068	3066275.391975376985	62.044797930548
0	180073	3066298.28984869957	22.897873322585
0	180080	3066495.335063532809	7.224607874594
0	180141	3068230.827142782951	26.463648085458
0	180146	3068301.595881715284	70.768738932333
0	180151	3068330.227241313309	28.631359598025
0	180162	3068357.798733764593	27.571492451284
0	180167	3068382.518767094903	24.72003333031
0	180176	3068400.397396812379	17.878629717476
0	180181	3068402.377709897863	1.980313085484
0	180186	3068463.180703949454	60.802994051591
0	180193	3068485.637483299051	9.693816103695
0	180202	3068730.879051137531	106.58693676699
0	180207	3068738.70762950625	7.828578368719
0	180214	3068889.91405825712	55.101578661775
0	180223	3069008.773986705198	20.703241262803
0	180228	3069012.499584936436	3.725598231238
0	180237	3069139.319833291488	47.243635406955
0	180242	3069189.599391515153	50.279558223665
0	180251	3069387.745924916376	72.705514312434
0	180256	3069411.423014382112	23.677089465736
0	180263	3069575.200181702371	1.200182505166
0	180272	3069619.44802925918	30.099402558604
0	180277	3069633.345182839965	13.897153580785
0	180286	3069778.876102456719	77.931581525806
0	180291	3069784.138999773347	5.262897316628
0	180298	3070088.961944491859	25.683944531029
0	180305	3070196.711007004644	28.614958258723
0	180312	3070262.555080929594	20.948183659439
0	180319	3070595.883935097735	33.325033719662
0	180326	3070970.753523684311	49.277322862702
0	180333	3071085.742450410555	64.347102229603
0	180340	3071146.634788194945	0.514209665072
0	180347	3071314.138533340784	57.428344478367
0	180358	3071431.339529350713	97.762184086535
0	180363	3071438.74482060435	7.405291253637
0	180368	3071448.702556243311	9.957735638961
0	180375	3071674.201750947629	36.843362121995
0	180382	3071784.205078917576	25.677609864964
0	180389	3071834.342044848491	22.073592495075
0	180396	3071915.249098417625	6.708627122669
0	180403	3072062.958486050421	53.340799125261
0	180412	3072149.15020530156	39.970352030024
0	180415	3072149.283495443463	0.133290141903
0	180424	3072308.983565911263	29.214579333663
0	180433	3072414.032467407686	84.060419258373
0	180438	3072414.755019922334	0.722552514648
0	180451	3072647.767497736515	160.93879234651
0	180458	3072746.264327390474	98.496829653959
0	180465	3072757.598091857216	11.333764466742
0	180472	3072842.479792371581	84.881700514365
0	180479	3072924.982129328954	82.502336957373
0	180486	3072950.875036292515	25.892906963561
0	180493	3073017.011533759689	66.136497467174
0	180498	3073018.249951431013	1.238417671324
0	180503	3073071.468765956558	53.218814525545
0	180508	3073072.947300766698	1.47853481014
0	180515	3073248.045528557318	32.250040723842
0	180522	3073354.967257400919	10.878545769193
0	180531	3073700.760425512377	99.707624555982
0	180536	3073711.098263690673	10.337838178296
0	180547	3073887.661115625537	48.132728253625
0	180552	3073934.640709357495	46.979593731958
0	180557	3073938.24421094133	3.603501583835
0	180568	3074024.946795483379	77.505586786176
0	180577	3074170.220338132277	145.2735426489
0	180582	3074288.307980372932	118.08764224066
0	180589	3074370.544431368577	82.236450995645
0	180596	3074456.163040879461	85.618609510884
0	180601	3074458.742125036027	2.579084156566
0	180606	3074513.558800083571	54.816675047544
0	180613	3074596.910493779612	13.484104341489
0	180620	3074692.564337079856	16.155417013375
0	180629	3074790.772523830012	53.859492814342
0	180634	3074812.839066837745	22.066543007733
0	180641	3075102.587123491514	1.206389589542
0	180650	3075148.763686550298	6.997302563126
0	180655	3075305.928527536648	157.16484098635
0	180664	3075372.680987109596	25.413121678893
0	180671	3075399.129800355376	26.44881324578
0	180676	3075400.300068594085	1.170268238709
0	180683	3075476.340603330798	5.365506882368
0	180690	3075750.567930910129	18.218882486875
0	180699	3075838.02268972287	19.850421753723
0	180704	3075892.549277018239	54.526587295369
0	180711	3075942.850607050811	3.711611507545
0	180718	3076039.521798790984	9.581687438324
0	180725	3076302.665523578148	92.496248186795
0	180734	3076999.442063889019	69.278993012225
0	180739	3077000.783685632963	1.341621743944
0	180746	3077053.042369754248	10.448420435598
0	180753	3077098.525026101224	17.254608929878
0	180760	3077497.7647102692	8.216002678518
0	180767	3077669.338853903268	17.108948683445
0	180822	3079490.016323063564	34.447399300812
0	180831	3079555.476322701227	65.459999637663
0	180836	3079574.577969021266	19.101646320039
0	180843	3079645.473759688604	70.895790667338
0	180848	3079654.851543988397	9.377784299793
0	180857	3079671.870655740495	17.019111752098
0	180862	3079701.918713819352	30.048058078857
0	180867	3079710.556852729831	8.638138910479
0	180876	3079913.760607361443	31.815702716243
0	180881	3079927.842622463146	14.082015101703
0	180892	3080276.196718689273	202.72700976115
0	180897	3080287.351547906717	11.154829217444
0	180902	3080355.180631905775	67.829083999058
0	180911	3080534.136051381075	31.648039792934
0	180916	3080539.379554088668	5.243502707593
0	180923	3080565.211691483122	21.554478209031
0	180930	3080607.695955359286	22.684373918051
0	180937	3080625.11690579395	10.739007884381
0	180944	3080691.319008286426	31.240647879168
0	180955	3080850.706827702136	56.850363331644
0	180960	3080853.753480378553	3.046652676417
0	180965	3080874.645605666407	20.892125287854
0	180974	3080997.014439818126	54.00495539073
0	180979	3081014.222746366694	17.208306548568
0	180986	3081187.11659135084	13.886371460893
0	180997	3081340.477263619389	67.035244537274
0	181002	3081400.854409582093	60.377145962704
0	181007	3081441.211574150272	40.357164568179
0	181016	3081560.766452308365	38.713868398028
0	181021	3081582.470406225571	21.703953917206
0	181028	3081631.489597487679	7.377980678887