version 2
run Simulations-18-20191215-22:53:56-18910
attr configname Simulations
attr datetime 20191215-22:53:56
attr experiment Simulations
attr inifile omnetpp.ini
attr iterationvars "$seed=7, $0=10000"
attr iterationvarsf seed=7,10000-
attr measurement "$seed=7, $0=10000"
attr network WifiCelNetPassiveQueue
attr processid 18910
attr repetition 0
attr replication #0
attr resultdir results/Simulations/omnet
attr runnumber 18
attr seedset 7
itervar seed 7
param **.numJobs 14000
param *.OFFLOAD.deadline exponential(10000s)
param *.source.interArrivalTime exponential(120s)
param *.WIFI.serviceTime exponential(40s)
param *.CELL.serviceTime exponential(400s)
param *.OFFLOAD.switchToWi exponential(1524s)
param *.OFFLOAD.switchToCel exponential(3120s)
param *.LOCAL.serviceTime exponential(5s)
param *.REMOTE.serviceTime exponential(1s)

vector 0 WifiCelNetPassiveQueue.OFFLOAD storeCelTime:vector ETV
attr interpolationmode none
attr title "Time in Cell, vector"
attr unit s
vector 1 WifiCelNetPassiveQueue.OFFLOAD queueLength:vector ETV
attr interpolationmode sample-hold
attr title "queue length, vector"
vector 2 WifiCelNetPassiveQueue.OFFLOAD storeDeadline:vector ETV
attr interpolationmode none
attr title "deadline, vector"
attr unit s
vector 3 WifiCelNetPassiveQueue.CELL serviceTime:vector ETV
attr interpolationmode none
attr title "wifi Service, vector"
attr unit s
vector 4 WifiCelNetPassiveQueue.CELL responseTime:vector ETV
attr interpolationmode none
attr title "Response Time, vector"
attr unit s
vector 5 WifiCelNetPassiveQueue.REMOTE serviceTime:vector ETV
attr interpolationmode none
attr title "wifi Service, vector"
attr unit s
vector 6 WifiCelNetPassiveQueue.REMOTE responseTime:vector ETV
attr interpolationmode none
attr title "Response Time, vector"
attr unit s
vector 7 WifiCelNetPassiveQueue.sink lifeTime:vector ETV
attr interpolationmode none
attr title "lifetime of arrived jobs, vector"
attr unit s
vector 8 WifiCelNetPassiveQueue.LOCAL serviceTime:vector ETV
attr interpolationmode none
attr title "wifi Service, vector"
attr unit s
vector 9 WifiCelNetPassiveQueue.LOCAL responseTime:vector ETV
attr interpolationmode none
attr title "Response Time, vector"
attr unit s
vector 10 WifiCelNetPassiveQueue.OFFLOAD storeWifiTime:vector ETV
attr interpolationmode none
attr title "Time in Wifi, vector"
attr unit s
vector 11 WifiCelNetPassiveQueue.WIFI serviceTime:vector ETV
attr interpolationmode none
attr title "wifi Service, vector"
attr unit s
vector 12 WifiCelNetPassiveQueue.WIFI responseTime:vector ETV
attr interpolationmode none
attr title "Response Time, vector"
attr unit s
vector 13 WifiCelNetPassiveQueue.REMOTE queueLength:vector ETV
attr interpolationmode sample-hold
attr title "queue length, vector"
vector 14 WifiCelNetPassiveQueue.LOCAL queueLength:vector ETV
attr interpolationmode sample-hold
attr title "queue length, vector"
0	88283	1500219.365416682105	1864.4570090668
0	88845	1509600.567539872348	1386.7556786603
0	89085	1512641.781538098627	2127.5117754698
0	89408	1518517.390316412203	1460.4028869787
0	89921	1528482.441118628844	3371.8164878834
0	90274	1534263.869204405718	9.075357865146
0	90341	1536293.915959055607	698.58462061533
0	90952	1546361.995165392459	1503.1089005496
0	91113	1549549.007003063633	12741.845408815
0	91712	1562550.450956524755	1928.5381520428
0	92020	1566204.706846722623	1193.9535229252
0	92415	1569962.337434216691	5505.3982093692
0	92613	1575931.862833685394	3299.5048390537
0	93170	1583018.762400405115	1387.1955178608
0	93550	1588728.321492071685	1286.3580425492
0	93677	1590954.714859280546	624.49011911695
0	93764	1592165.073942435114	4390.5614297456
0	94055	1597533.120540439686	208.58268670921
0	94318	1600253.645199542766	1449.0861948442
0	94608	1604648.942932479198	4297.4610085006
0	94918	1611390.67484680673	1216.0294300521
0	94955	1612615.327182824205	850.27928909561
0	95390	1618146.120314835501	1687.9834811697
0	95444	1620214.724826512891	4157.3461935168
0	95651	1624483.063933080312	306.30107905581
0	95925	1626834.551955592509	181.6271492927
0	96644	1637794.128848082766	2759.3679603127
0	96874	1642445.282326723282	4237.6118355733
0	97266	1649448.020471842705	1210.4263429963
0	97565	1656035.565237046673	1426.3472662171
0	97673	1658797.656773006393	622.05250854037
0	97765	1660401.764432230454	232.87268082328
0	98096	1665294.598908739326	209.82286143007
0	98273	1668168.74935644215	494.42698529264
0	98373	1669718.996836358775	212.36757300433
0	98410	1671012.868810054104	565.82968018384
0	98491	1673076.95107442115	3706.8529573155
0	98716	1677483.104211203754	1119.5620910404
0	99394	1687201.951079869206	1012.3449459331
0	99431	1688608.878115606977	503.24066506295
0	99750	1693605.850213190081	1828.9713038099
0	99895	1696475.236766022325	1306.2816686356
0	99982	1698464.270241987537	7044.2661439777
0	100294	1705644.800185378403	2160.9212674222
0	100402	1709112.729966388065	1182.3517422087
0	101057	1715037.024545859137	2007.5908337792
0	101120	1718039.884392904719	1162.8721578095
0	101735	1728100.480505350885	1399.2029858505
0	101803	1730041.512990941787	1622.4825059138
0	102395	1739180.186498022756	543.08021416525
0	102746	1744326.656885478717	1991.5852088703
0	102903	1747204.003991734194	781.31416624381
0	102955	1748356.318967573233	297.28727198199
0	103143	1750653.288760943839	259.543638712
0	103442	1756142.56072097447	727.17965796679
0	103919	1764940.860069892033	2222.1550355888
0	104301	1771036.370278487832	48.188488099975
0	104480	1773579.35390222002	829.03959936707
0	104531	1774998.655437517219	5941.4420434448
0	104847	1781693.809800986166	1110.1528640083
0	105238	1787363.481925314987	3613.0787634879
0	105505	1792281.078939930036	1002.0892934087
0	105621	1794509.409501674615	479.31711848399
0	105756	1795990.761166527242	3644.4671839487
0	105995	1800602.327855947124	5162.9662307196
0	106250	1806128.105216627697	279.24675199798
0	106451	1807956.563708167398	241.33745409051
0	106921	1814808.25568059028	1979.9267750891
0	107244	1820161.50292139268	1972.7007921421
0	107477	1824491.917569801921	203.89496426672
0	107635	1828037.212741709041	59.899520917155
0	108004	1834730.06119159785	1120.7484030752
0	108131	1836834.097565776903	350.36613396676
0	108176	1837367.027240595611	2318.8091368013
0	108239	1839962.261451707284	1219.9581622242
0	108372	1842304.009931207395	716.1530247205
0	108657	1845798.276019776326	130.32268344319
0	108975	1850474.864509100683	4921.0278279567
0	109501	1859121.786691784345	140.28893183517
0	109538	1859824.500043373015	1559.0707686288
0	110049	1867332.899967021371	2005.8741131249
0	110362	1872591.613783166885	488.2785003641
0	110461	1874008.251274645793	58.499251426804
0	110602	1875384.321820791734	1897.9484011128
0	110801	1878915.357628692629	2529.4998801023
0	111298	1888222.282816642206	3391.2036468728
0	111400	1891743.363827708393	2157.2387385793
0	111677	1895781.355640821537	278.14106099484
0	111714	1897346.780847859227	1225.2267303413
0	111908	1900267.942810574793	326.30290079776
0	112400	1909408.602151232132	758.14247045337
0	112797	1916378.92437489951	1187.2066052148
0	113037	1921331.075359388298	1720.0978469192
0	113132	1923436.403299007851	4.628154634888
0	113493	1929873.330097985631	2831.2915918167
0	113733	1934958.366711651737	4787.2501749904
0	114776	1951133.773101247279	842.97901788512
0	115091	1955751.585250191089	1358.3259768532
0	115509	1961740.539228101254	277.1077964857
0	115595	1963285.533106613975	227.76199502187
0	116080	1971696.331962579937	384.08071924599
0	116372	1975731.202452248845	3433.6815973039
0	116743	1981003.805276355394	571.05163487438
0	117320	1990305.419205821492	1017.9165799584
0	117469	1992770.672400682364	9482.7748524785
0	118067	2005144.052897763691	974.24798096046
0	118596	2012098.349581364763	308.5325302162
0	118945	2016591.397750289068	2959.0666461962
0	119063	2019951.180024332056	1148.1133251
0	119276	2022334.320471147882	206.46885169438
0	119359	2023994.509093451117	3975.1033733695
0	119765	2031310.671978354478	1208.6718542475
0	120443	2043712.992843412786	145.59150010377
0	120473	2044186.989504451661	244.81295102818
0	120697	2048221.380643445993	2997.5769800311
0	120949	2052722.436739481598	1452.3356345941
0	121290	2057970.721742168672	4007.9442093348
0	121651	2063636.99816475699	4696.1328701905
0	121843	2069001.939214524318	476.6683084774
0	122144	2071954.890720038364	2020.2851990535
0	122436	2076965.590113915011	134.7547941885
0	122641	2081083.438799191203	209.44766733764
0	123262	2090899.937263007796	7279.9097852746
0	124244	2107529.290114476326	1022.498648608
0	124424	2110439.015105428646	3108.7239742047
0	124745	2117703.528546851738	2032.9003389497
0	125042	2124320.893163289781	810.00583880741
0	125264	2127339.156727357018	1095.2789869627
0	125387	2130279.198248305914	2773.0939794463
0	125574	2134904.806716347155	1138.7216941168
0	125820	2138939.626698350291	1137.1542152669
0	126030	2142780.597698588976	1025.1186375666
0	126273	2145961.060926714972	817.34897655929
0	126583	2151495.31632214605	525.53200207091
0	126779	2155920.698882300907	1401.7125984335
0	126920	2158147.254761285368	618.6846394538
0	127505	2167733.588121931767	1478.180596745
0	127850	2171940.725913745425	549.47233496417
0	128100	2175478.266038029133	964.19380617784
0	128176	2177054.345227737798	2613.6990931954
0	128471	2182228.028735334927	420.45397427563
0	128760	2186349.315332496041	273.70967881377
0	128773	2186979.741205311301	1432.5266993789
0	129605	2200920.844709378656	156.11688097609
0	130006	2209612.228197563053	1681.1620891226
0	130177	2212906.380839942027	192.63132455018
0	130303	2215142.688746405889	39.515040784912
0	130452	2218908.696622012877	781.3066150595
0	130648	2222650.041836455563	1191.0140301162
0	130876	2225972.008270533671	7920.37453457
0	131601	2238138.402365543785	1322.5501414559
0	132216	2247806.489942204997	4072.4563488785
0	132503	2253111.781491922442	215.37009467537
0	132645	2255591.835720774161	712.03202910465
0	132864	2258562.208612347114	483.3260170262
0	133079	2261877.393649133392	1899.0777982621
0	133183	2264563.400329194374	2342.9786580319
0	133333	2267955.374575643539	637.66001445777
0	133350	2268744.569892015542	1300.1431758974
0	133714	2273315.317058698686	591.13544252697
0	133739	2273930.338611527225	709.120368763
0	133890	2276589.956836319304	113.37843682912
0	133990	2277733.730985881946	233.63768380777
0	134188	2281344.029965062285	2043.643125259
0	134265	2283401.687605051907	2046.6688558819
0	134958	2294319.885301552826	2900.7374930057
0	135165	2298464.858839870442	3724.3715612551
0	135600	2306788.379720511664	58.543819525851
0	135619	2307271.840135822092	1112.8271219071
0	135801	2310447.76879952293	454.88843134002
0	135838	2311466.585264782174	392.07289850481
0	136148	2315621.800893605109	3105.7704956319
0	136601	2323084.682352739262	855.37864110484
0	136988	2329264.499748719826	66.660644266866
0	137273	2334899.721864239814	11315.253350443
0	137847	2347667.302803718923	1489.6322688779
0	137899	2349319.525602471249	2260.0252732888
0	137983	2351596.120588201698	1991.8948117466
0	138906	2362511.448036955042	299.16263399565
0	139167	2367744.223389186104	32.033957830575
0	139428	2372217.690340360145	881.84025197316
0	139451	2373136.797229952188	1306.66414133
0	139718	2377051.945869970242	910.57938693683
0	140174	2385868.043907965276	5450.8287757905
0	141091	2402449.358010082142	1807.1396350668
0	141157	2404271.036310145801	1714.8848706249
0	141550	2409899.521532013892	253.53614200847
0	141577	2410716.777445515071	9755.081542185
0	142263	2422251.802940114375	1229.429658876
0	142350	2424508.986962585704	111.70807912734
0	142628	2427718.780731654381	4070.9325759096
0	142917	2433276.572528861776	1782.6145392098
0	143083	2436015.452052108589	626.96703352469
0	143216	2438290.227910458316	839.74036791985
0	143457	2441971.045618366232	2415.8293787609
0	143655	2445018.790060416505	336.88306835092
0	144184	2452638.003054190734	87.4545157711
0	144525	2456359.394754744609	1004.4958370614
0	144845	2463206.505472479421	4825.3841438501
0	145332	2471845.984795257287	427.65496102859
0	145399	2473201.140838731986	936.67043091098
0	145545	2475362.514207767038	24.367162712028
0	145601	2475959.341126341561	1888.3643689658
0	145885	2480251.834923988136	1264.9762514745
0	146244	2486072.712720345024	4702.5425003221
0	146638	2493170.195207777287	422.40636953369
0	146868	2496349.352759302639	1920.9353306975
0	147061	2499268.604127722737	2005.8746953515
0	147299	2503808.418962286509	958.95966570211
0	147792	2513122.188401658658	2341.9585085937
0	148177	2518218.633143292101	596.62343948592
0	148398	2521436.043031270821	289.42858723702
0	148802	2528067.548797929539	1879.7943575856
0	149235	2534919.245551151201	1326.9914810579
0	149455	2538863.473497245267	1648.7858531001
0	150148	2549101.076563416127	775.57972936485
0	150290	2551881.822917451701	4100.586598237
0	150493	2556317.396286600369	1762.0520081079
0	150843	2560364.402029694214	1553.4025978275
0	150937	2562617.374146605951	135.71181782553
0	150984	2564198.72176596365	4880.0345333727
0	151610	2572307.576051429682	90.513107723795
0	151916	2576842.696401139488	923.77064923808
0	152020	2578593.479450513563	3450.605853229
0	152371	2584794.044131326318	1458.9709609504
0	152744	2590482.613801426683	1988.8206000786
0	152820	2592534.105407341199	82.726784676843
0	153384	2600721.297554349072	687.07199267888
0	153501	2602803.719670690397	1243.8090301815
0	153663	2605498.603910376656	1200.7374224121
0	154329	2616709.442344628526	956.38552143714
0	154419	2618458.833843792644	2121.0051366422
0	154643	2622920.83300839731	487.22000356653
0	155035	2628630.204811871951	59.449749450833
0	155226	2630880.382608200228	214.41212944726
0	155505	2636947.850853463375	393.01777374781
0	155668	2640266.796891701939	918.69996828424
0	156132	2649820.580291532592	1901.0427364852
0	156277	2652446.095350481662	389.48171508799
0	156377	2654804.874315536052	1207.1147121061
0	156530	2657167.554328418073	1632.655686761
0	156650	2659205.866713865296	249.34640769419
0	156865	2662799.474102180943	543.9318710769
0	156948	2663953.444755993183	606.5164345987
0	157083	2666681.278503663526	458.05687115277
0	157854	2681445.366134827069	697.93535556906
0	157880	2682213.803686355104	1540.7963090784
0	158219	2689343.859760124192	3188.7389365478
0	158305	2692723.434100050564	3860.0664885701
0	158740	2699028.217796608034	1417.6084716435
0	159194	2706811.949886426443	1308.7175788662
0	159605	2712873.169444974634	357.39229442917
0	159751	2716944.900560748994	897.1024180794
0	160096	2721559.78940360046	1347.9227826765
0	160448	2727536.844271931457	797.6255069922
0	160780	2732043.313281252924	907.21945171148
0	161090	2737744.768144402513	2288.810400935
0	161417	2742012.944292960965	1098.0019858952
0	162144	2753181.967132417144	76.190568880405
0	162377	2756049.177305748014	777.79599011519
0	162575	2758875.600159294666	593.19283264106
0	162626	2760279.22508061228	3072.7753503949
0	162935	2766730.54521905276	1172.682327903
0	162990	2768270.823883841467	59.185073560656
0	163416	2776013.166794631009	643.76003867507
0	163612	2780762.169864420527	1691.5673108594
0	163781	2784868.126576493653	1603.1039894456
0	163881	2786998.405901765673	85.122394544302
0	164097	2790692.216557349061	3864.8861585714
0	164286	2795205.733319963239	3362.3697939056
0	164580	2799692.377878086809	3332.6806052272
0	165405	2810938.846982951476	646.12376159982
0	166049	2820407.070279693435	95.111509385064
0	166130	2821848.23309952447	235.70394127152
0	166289	2823595.316205495974	1789.9549734971
0	166987	2833917.90137415628	548.254642735
0	167274	2837179.0011557479	529.86565944937
0	167456	2840120.486759884846	1177.2297647212
0	167540	2842739.87986284985	3075.3743081597
0	167703	2846810.16672874663	605.25437549341
0	167749	2847881.103792883628	4793.3901274615
0	168989	2864971.644261498532	809.56507791599
0	169211	2868240.534813194913	2021.7232628007
0	169821	2876903.129427538857	2207.6779290441
0	170052	2880792.245425150912	3072.9989405071
0	170561	2889953.201861693249	105.51611753373
0	170995	2897690.971908469358	754.10450932353
0	171017	2898638.648989903579	409.22982372867
0	171071	2899847.766451117	958.11461840268
0	171412	2905570.788070720286	4089.9919979227
0	171557	2910170.519554021194	943.3100400928
0	171690	2911872.360947891715	551.07805509703
0	171975	2916548.761442279691	1023.1988574061
0	172220	2921383.577614044247	2160.3781925599
0	172564	2926994.478852969546	692.42044716239
0	173091	2935067.746417445245	683.1750267109
0	173167	2936728.698252768099	500.57323455341
0	173572	2944697.382188720699	4359.2648179203
0	173800	2950070.236531732316	922.13214143776
0	174000	2952421.175293062412	707.92359571973
0	174036	2953184.433603234865	107.20517639239
0	174668	2963167.284051972413	1322.1948731181
0	175126	2970169.826734445299	663.82536685392
0	175666	2980635.708221217604	2050.6207121467
0	176172	2988339.873736188416	1922.848309858
0	176400	2992349.001942961259	86.361505048481
0	176482	2993848.426319768108	690.7408020289
0	176908	3001121.981244055273	1373.6957171063
0	177001	3002973.006449789648	2314.4297055717
0	177308	3007921.927387924894	3624.8702021841
0	177923	3017397.605906234519	4369.2785339207
0	178295	3023395.241620850325	2688.0317155577
0	178644	3029841.426346928539	3328.9779064654
0	179053	3037242.035525404372	800.48182940556
0	179367	3042961.149764012463	524.18528659578
0	179644	3048945.326690038348	162.59795573458
0	180017	3053730.060327847128	79.124592203134
0	180241	3057044.717266539579	4090.3664226862
0	180529	3062664.687524815805	1282.9160985486
0	180988	3069399.915690377986	872.11686573406
0	181301	3074109.10146766671	780.60336301142
0	181332	3075003.912499549027	138.54295753324
0	181519	3077545.988531543288	3882.1310864403
0	181968	3086061.742687432037	2261.3457435965
0	182202	3090345.64167481804	1010.2711784318
0	182522	3096492.544825402782	567.17754173705
0	182603	3097630.815412046639	404.76079795058
0	182765	3100075.437211879047	1439.8768312888
0	182844	3101987.859926912716	963.204965064
0	183225	3107309.411998432392	1608.5871818949
0	183292	3110329.791031347414	2823.9653918733
0	183959	3120957.812691358954	60.847710419249
0	183972	3121132.758178401786	616.63906934824
0	184136	3124377.914190426893	330.85117492736
0	184260	3127353.629787508333	957.33446750303
0	184324	3128668.674406018001	864.53271923132
0	184385	3129946.577483908835	523.23091027562
0	184426	3130657.524571610658	121.01550306322
0	184580	3132514.321586908362	4187.3119729477
0	185458	3148445.064723996987	2687.5937976522
0	186499	3163921.54042902601	4626.4709642
0	186592	3169738.276915017578	884.1745457582
0	186594	3176253.524016557577	122.82756648836
0	186596	3181536.439863833626	462.27605464307
0	186598	3186026.274349988353	1598.5892864769
0	186600	3188279.831867209974	1161.5898681151
0	186602	3191823.241913083266	1159.0173064196
0	186604	3198116.294023436948	430.05217603979
0	186606	3198799.492811493038	2502.7737844791
0	186608	3204487.894636192471	433.80993576872
0	186610	3209065.294468395272	488.4539192596
0	186612	3211229.647032255594	500.72240254293
0	186614	3213042.5825932997	289.62392970007
0	186616	3215252.90908684054	167.60675614836
0	186618	3223631.614563445606	19.79603007726
0	186620	3235324.866311417578	1894.558006167
0	186622	3246141.728119421568	531.86628517999
0	186624	3247203.896446206569	4130.418687073
0	186626	3261136.950536496955	1693.8320509357
0	186628	3264533.232565191735	2125.4370671455
0	186630	3270480.951702957806	2625.6139036564
0	186632	3273693.705180169896	1.913020033913
0	186634	3273837.971540477727	720.73639701662
0	186636	3274634.080199512431	486.69709293095
0	186638	3281288.136752279035	2468.1122902881
0	186640	3294565.548841424081	630.68572736477
0	186642	3295740.647449644748	1244.9994092646
0	186644	3302734.550893305147	424.00390059637
0	186646	3311175.674004285891	133.52457434857
0	186648	3311797.908962883918	213.11358444805
0	186650	3317833.190163706191	469.43756862137
0	186652	3319571.119801110207	5460.9680548614
0	186654	3326420.609583223469	539.34538277565
0	186656	3327895.696948887386	632.48973824255
0	186658	3329906.780769186599	1949.7158600589
0	186660	3332647.469293884846	1871.2576659987
0	186662	3334649.110502932219	229.96992865486
0	186664	3336362.392884851522	1627.1720598127
0	186666	3342716.315389970966	658.02444571372
0	186668	3346453.432611309748	436.33653507386
0	186670	3347561.772273238468	216.51637151269
0	186672	3347818.922680372734	4896.704401571
0	186674	3353386.350338570718	7.909376533021
0	186676	3358535.120742958545	663.62868822108
0	186678	3361988.804901080728	3313.8143687291
0	186680	3365881.510647641613	870.87550205254
0	186682	3370150.745458800444	427.05115852881
0	186684	3388349.354801699172	1868.6182793036
0	186686	3392171.078176886446	6926.94120218
0	186688	3402587.457253450107	499.60297298141
0	186690	3405441.147856626194	1497.6229156371
0	186692	3411493.073457075461	132.67416405681
0	186694	3411781.9517449766	366.07376653075
0	186696	3415710.654126048249	520.99417801864
0	186698	3418376.743581967618	130.95777834293
0	186700	3420682.43569518743	120.81528375676
0	186702	3420936.570319845851	170.72388177628
0	186704	3422593.039208044617	2596.923385639
0	186706	3425605.241121952576	2787.3843258845
0	186708	3428916.002875461707	324.13074565452
0	186710	3441609.231559467766	346.07418345033
0	186712	3446496.280903777993	1403.8633961404
0	186714	3449815.579556927718	738.65314186575
0	186716	3450667.817726989398	3336.3764974336
0	186718	3463338.178343168923	263.37081406509
0	186720	3468990.104740296157	2142.7602350712
0	186722	3471817.993524362824	510.09776936231
0	186724	3474629.728234312464	574.67093227969
0	186726	3476596.532571562681	1720.5031586517
0	186728	3480146.847190004076	104.87895410449
0	186730	3481786.742026085179	2950.2345159501
0	186732	3486221.767360546856	908.21482649326
0	186734	3491158.589392950732	2209.0244920566
0	186736	3494966.513578045595	2884.0722544701
0	186738	3503095.903807059763	851.14868813841
0	186740	3504915.363743686491	1236.9827611606
0	186742	3510365.830443065972	501.94697425622
0	186744	3514599.170856664659	3493.5680646882
0	186746	3518648.163822367893	911.29826785044
0	186748	3520853.773610571505	871.81375566646
0	186750	3523763.262091088096	1807.1766595193
0	186752	3526517.767711489504	389.08817612704
0	186754	3535025.164261351806	270.50426371123
0	186756	3538514.133980683413	817.74815025354
0	186758	3543707.051549886681	1394.5104919716
0	186760	3545655.811894760253	821.10490926239
0	186762	3550091.651530327293	1139.0517569423
0	186764	3558748.545256609729	563.3526593663
0	186766	3559829.805988457156	284.69726992322
0	186768	3562083.122695184509	798.42098788558
0	186770	3563079.377233958928	1813.4998538297
0	186772	3566412.757203911233	1927.8699540756
0	186774	3572842.06506850261	2811.636636761
0	186776	3575777.075575851542	698.54432966941
0	186778	3577706.995875540709	406.34475817998
0	186780	3588784.379565738648	976.66828656944
0	186782	3594396.586966788912	1039.8995538258
0	186784	3596014.093004687416	1195.9285478644
0	186786	3597278.144026577252	2552.2574281141
0	186788	3610652.665710551052	1113.3354380931
0	186790	3617242.479763550603	438.28722044918
0	186792	3620729.043418049925	113.34679544394
0	186794	3623239.39042325773	638.64808157407
0	186796	3626011.319726993908	14.719494330483
0	186798	3628376.808726702649	241.76085083084
0	186800	3629274.397840771512	3312.442706477
0	186802	3634035.976602971736	1691.7287026384
0	186804	3640416.465879269651	1385.7234795363
0	186806	3643410.483824184022	26.697833888076
0	186808	3644339.733541324703	2810.6759749189
0	186810	3650883.498800856719	1090.7870866021
0	186812	3655425.712300958134	3922.6081679394
0	186814	3659914.905639258245	1625.6019047124
0	186816	3662253.470070701595	386.94947312178
0	186818	3663663.984309979087	4615.4725235732
0	186820	3668589.859446232312	1300.1591960522
0	186822	3671551.914029483438	2760.3199368146
0	186824	3674520.997945600071	242.20522980825
0	186826	3681453.553539301987	956.28348738696
0	186828	3682944.08682823337	1438.4184407825
0	186830	3700204.601818053259	208.6688257685
0	186832	3700963.981466678994	2323.2945572341
0	186834	3703930.089831912202	847.06090285717
0	186836	3706442.257168541697	3340.5773478688
0	186838	3709834.477887087849	2304.3213848873
0	186840	3712326.861145261601	2836.2797945516
0	186842	3716649.989956971865	6483.2865481349
0	186844	3726016.469082115797	1663.7300968235
0	186846	3728126.928877696679	257.6479494673
0	186848	3733014.160644203726	3787.4069339856
0	186850	3737980.806667261575	1622.5238888523
0	186852	3741670.320502647873	1237.1607188348
0	186854	3746977.674798912598	3553.6728221897
0	186856	3758176.923489898915	1632.316793588
0	186858	3764033.541315232488	4897.5070382322
0	186860	3774144.573667191738	937.73782610713
0	186862	3778504.963807123469	613.78784088809
0	186864	3783838.837227748449	1064.8454527779
0	186866	3786242.076995314931	4406.3651020795
0	186868	3795272.51707336936	1498.1534746541
0	186870	3796868.352295350595	3532.8792268922
0	186872	3801511.304844536946	1836.2446873629
0	186874	3804524.03845366379	922.64686574849
0	186876	3807921.386686105734	1545.8043601795
0	186878	3810658.922065839296	610.69477792685
0	186880	3816172.829381304289	839.19429989597
0	186882	3817230.872525203612	0.091175169119
0	186884	3822454.139164077527	628.14309111776
0	186886	3827670.118518942761	237.4106987389
0	186888	3830418.890802621308	1301.5737347994
0	186890	3834241.35586526129	400.61194748344
0	186892	3834751.279131825845	2093.5339878808
0	186894	3839082.346320826864	515.31135726721
0	186896	3844120.122916726293	2642.2277971948
0	186898	3850172.491535145729	306.42465701605
0	186900	3856162.621496176126	112.45990758506
0	186902	3857126.123099858473	232.14537853463
0	186904	3860609.482243047049	895.15000782741
0	186906	3862417.978428571467	4407.9694490244
0	186908	3868702.958721213685	3656.7196602161
0	186910	3873856.605858706871	456.94661712505
0	186912	3874880.770130968761	566.08164420612
0	186914	3875745.986130194897	325.83902054634
0	186916	3884545.830570345322	71.314151415224
0	186918	3885939.026613360578	611.76086865178
0	186920	3888957.534178604256	526.74979563114
0	186922	3890571.144368824478	1261.1330627871
0	186924	3892522.072622587695	2008.4372622074
0	186926	3908791.967852642904	13.23235217244
0	186928	3913802.232607295758	1085.6754955341
0	186930	3916845.857995028273	9133.8951797055
0	186932	3928223.614426137243	2068.6268616218
0	186934	3933472.962537112278	309.96009640468
0	186936	3934112.370890205608	1279.4349928998
0	186938	3937423.307796052107	769.46074458807
0	186940	3940031.925152966383	4221.9035869094
0	186942	3944971.069724048717	1319.0656651781
0	186944	3947991.694366426612	40.172462182743
0	186946	3948715.572208425042	677.55506110392
0	186948	3953375.07490263058	237.62491041002
0	186950	3953773.717839650156	1907.6019703009
0	186952	3956123.006656951861	1077.6574639396
0	186954	3966558.176167298463	1904.2153283649
0	186956	3972863.022597784473	4891.7134318676
0	186958	3978915.584084436325	1965.75901121
0	186960	3980964.268689105248	413.11921048833
0	186962	3983508.127659763297	2414.5042671292
0	186964	3998637.169065905525	303.22342300862
0	186966	4001147.290912078677	8.671967371576
0	186968	4002350.69471973304	123.77760702798
0	186970	4002756.648409672044	1644.3552345907
0	186972	4010219.200298129611	735.43870512553
0	186974	4012379.579893436426	966.19539590782
0	186976	4013635.365976603797	1951.628658413
0	186978	4023851.574664863539	840.61546164414
0	186980	4028518.760107565929	4127.0035416804
0	186982	4034713.973309363864	1598.703096382
0	186984	4038314.747256782918	605.91584840144
0	186986	4042461.241438120792	804.27444719022
0	186988	4043349.20869935359	1888.500734985
0	186990	4047013.649081566906	518.63266890488
0	186992	4054138.285948886766	3522.6229994593
0	186994	4060826.429423077237	3594.0093131968
0	186996	4066679.574169119462	645.10465066647
0	186998	4077093.155551528732	1723.9096573809
0	187000	4080060.09494041709	465.62021122922
0	187002	4084643.147533745942	6720.0547451337
0	187004	4097441.639623825848	1916.8184713337
0	187006	4110764.497816463671	852.83003450972
0	187008	4115506.034972033727	439.41637779034
0	187010	4118859.468399126147	2095.6565050178
0	187012	4121261.971557670256	3122.9401154543
0	187014	4126386.953362285546	4631.614936643
0	187016	4140570.73631463093	2377.008189681
0	187018	4143117.616288615219	659.12406906819
0	187020	4150813.286572841289	1291.2847548397
0	187022	4152369.991841474508	39.958094427377
0	187024	4154287.790424171011	266.64844253684
0	187026	4155576.373451653388	806.54349895157
0	187028	4163525.181800522489	759.30838294862
0	187030	4164674.272346784139	1455.8992823736
0	187032	4170923.067665325694	303.37462035996
0	187034	4171932.684108975487	289.38304943006
0	187036	4180267.500128563198	718.4639255415
0	187038	4182704.074415418621	1603.2041050807
0	187040	4192369.155105289182	1374.4532656502
0	187042	4196210.326502893891	925.11183249039
0	187044	4197531.612486537031	1120.0297740368
0	187046	4200320.584667115799	205.17985844606
0	187048	4206013.881671437367	3087.6135265481
0	187050	4209607.737943374744	1228.3243444695
0	187052	4217363.453262898761	1009.2859902765
0	187054	4222090.769261184684	48.329212639963
0	187056	4225236.302644577687	18.105669988699
0	187058	4226990.337539718926	3426.8758975142
0	187060	4238797.035706882446	2138.2783565422
0	187062	4245257.795308785936	7996.1430686574
0	187064	4253677.322584593954	61.891874599911
0	187066	4255264.004878164155	1091.4020171654
0	187068	4257286.588133472378	37.352438335815
0	187070	4267493.246404607921	2736.152361031
0	187072	4272312.727004185565	1434.9310455656
0	187074	4277154.295749682934	5005.9157863015
0	187076	4283943.588726688242	4151.0275952297
0	187078	4288964.415541883706	5980.2763107601
0	187080	4295726.270970235715	2032.4986468202
0	187082	4300803.196301683851	980.92097604231
0	187084	4301905.336835365148	793.88462907247
0	187086	4302876.708389930075	730.3101569754
0	187088	4320636.055611630567	302.33316740823
0	187090	4327018.443435943151	326.25376962447
0	187092	4327532.806971788177	407.24494776678
0	187094	4329127.908219187959	1574.033643072