version 2
run Simulations-38-20191218-11:09:19-65753
attr configname Simulations
attr datetime 20191218-11:09:19
attr experiment Simulations
attr inifile omnetpp.ini
attr iterationvars "$seed=25, $0=6600"
attr iterationvarsf seed=25,6600-
attr measurement "$seed=25, $0=6600"
attr network WifiCelNetPassiveQueue
attr processid 65753
attr repetition 0
attr replication #0
attr resultdir results/Simulations/omnet
attr runnumber 38
attr seedset 25
itervar seed 25
param **.numJobs 10000
param *.OFFLOAD.deadline exponential(6600s)
param *.source.interArrivalTime exponential(120s)
param *.WIFI.serviceTime exponential(40s)
param *.CELL.serviceTime exponential(400s)
param *.OFFLOAD.switchToWi exponential(1524s)
param *.OFFLOAD.switchToCel exponential(3120s)
param *.LOCAL.serviceTime exponential(5s)
param *.REMOTE.serviceTime exponential(1s)

vector 0 WifiCelNetPassiveQueue.OFFLOAD queueLength:vector ETV
attr interpolationmode sample-hold
attr title "queue length, vector"
vector 1 WifiCelNetPassiveQueue.OFFLOAD storeDeadline:vector ETV
attr interpolationmode none
attr title "deadline, vector"
attr unit s
vector 2 WifiCelNetPassiveQueue.LOCAL serviceTime:vector ETV
attr interpolationmode none
attr title "wifi Service, vector"
attr unit s
vector 3 WifiCelNetPassiveQueue.LOCAL responseTime:vector ETV
attr interpolationmode none
attr title "Response Time, vector"
attr unit s
vector 4 WifiCelNetPassiveQueue.sink lifeTime:vector ETV
attr interpolationmode none
attr title "lifetime of arrived jobs, vector"
attr unit s
vector 5 WifiCelNetPassiveQueue.CELL serviceTime:vector ETV
attr interpolationmode none
attr title "wifi Service, vector"
attr unit s
vector 6 WifiCelNetPassiveQueue.CELL responseTime:vector ETV
attr interpolationmode none
attr title "Response Time, vector"
attr unit s
vector 7 WifiCelNetPassiveQueue.REMOTE serviceTime:vector ETV
attr interpolationmode none
attr title "wifi Service, vector"
attr unit s
vector 8 WifiCelNetPassiveQueue.REMOTE responseTime:vector ETV
attr interpolationmode none
attr title "Response Time, vector"
attr unit s
vector 9 WifiCelNetPassiveQueue.OFFLOAD storeWifiTime:vector ETV
attr interpolationmode none
attr title "Time in Wifi, vector"
attr unit s
vector 10 WifiCelNetPassiveQueue.WIFI serviceTime:vector ETV
attr interpolationmode none
attr title "wifi Service, vector"
attr unit s
vector 11 WifiCelNetPassiveQueue.WIFI responseTime:vector ETV
attr interpolationmode none
attr title "Response Time, vector"
attr unit s
vector 12 WifiCelNetPassiveQueue.REMOTE queueLength:vector ETV
attr interpolationmode sample-hold
attr title "queue length, vector"
vector 13 WifiCelNetPassiveQueue.OFFLOAD storeCelTime:vector ETV
attr interpolationmode none
attr title "Time in Cell, vector"
attr unit s
vector 14 WifiCelNetPassiveQueue.LOCAL queueLength:vector ETV
attr interpolationmode sample-hold
attr title "queue length, vector"
0	175950	3000011.76505745711	15
0	175951	3000021.033636287817	14
0	175956	3000034.713639485535	15
0	175958	3000108.374863363186	16
0	175960	3000148.081872670848	17
0	175961	3000236.958353960374	16
0	175965	3000428.785552053402	15
0	175970	3000566.31588311139	16
0	175971	3000671.659896545086	15
0	175975	3000729.340047728221	14
0	175981	3000768.772117899551	15
0	175983	3000792.597717803516	16
0	175985	3000868.874515786742	17
0	175987	3000919.510753923995	18
0	175989	3001051.465902871272	19
0	175991	3001057.873605796293	20
0	175992	3001073.925691891881	19
0	175997	3001090.353398383064	20
0	175999	3001111.220498112262	21
0	176000	3001134.091248784178	20
0	176006	3001137.382049951468	21
0	176008	3001317.593547405203	22
0	176010	3001332.028038209284	23
0	176011	3001419.801657239935	22
0	176014	3001470.195812373355	21
0	176020	3001485.449609436805	20
0	176025	3001490.015830944535	19
0	176030	3001519.25064958399	18
0	176036	3001546.055060182421	19
0	176037	3001546.845127142587	18
0	176042	3001595.040312853408	17
0	176046	3001595.171004990179	18
0	176049	3001596.341303968301	17
0	176055	3001598.893105526721	18
0	176056	3001614.747070633497	17
0	176061	3001633.403858159685	16
0	176070	3001671.895661076801	15
0	176075	3001692.18042922431	14
0	176080	3001701.241523177453	13
0	176085	3001706.627689511818	12
0	176090	3001709.072599727411	11
0	176096	3001733.212193947704	12
0	176098	3001748.895455547527	13
0	176099	3001799.338169246503	12
0	176104	3001810.737584044872	11
0	176109	3001849.639975611534	10
0	176115	3001867.488652810048	11
0	176116	3001900.546806983781	10
0	176121	3001908.130918957535	9
0	176127	3001945.662741584012	10
0	176128	3001985.402110057175	9
0	176133	3001989.567543006747	8
0	176138	3002005.500215235744	7
0	176144	3002010.025020154808	8
0	176145	3002021.500413187787	7
0	176150	3002054.188933441238	6
0	176155	3002068.504302304891	5
0	176160	3002084.955096385722	4
0	176166	3002131.857577401194	5
0	176167	3002141.892741737295	4
0	176172	3002142.866701089268	3
0	176177	3002154.236233815175	2
0	176183	3002172.334814213816	3
0	176184	3002227.323370582704	2
0	176190	3002280.284215804515	3
0	176191	3002295.055147916217	2
0	176196	3002312.579871262825	1
0	176202	3002318.136193621643	2
0	176203	3002336.752697983256	1
0	176209	3002426.455143595223	2
0	176211	3002437.099678098457	3
0	176213	3002499.312620517574	4
0	176214	3002521.285091041296	3
0	176219	3002550.484309442217	2
0	176224	3002557.993163978284	1
0	176230	3002631.850851463707	2
0	176231	3002649.000941680231	1
0	176236	3002676.058955621669	0
0	176305	3003525.373010150147	1
0	176306	3003560.797316958204	0
0	176326	3003986.881987530069	1
0	176327	3003993.974113588504	0
0	176340	3004172.78085696697	1
0	176342	3004214.106719816132	2
0	176343	3004245.067597506001	1
0	176349	3004267.240333266903	2
0	176350	3004304.723006153805	1
0	176355	3004335.942403928823	0
0	176382	3004662.080463928795	1
0	176383	3004754.374068942146	0
0	176403	3005094.047135053678	1
0	176404	3005098.701264936671	0
0	176417	3005158.314033130651	1
0	176419	3005159.942946039798	2
0	176421	3005203.902685414445	3
0	176422	3005218.612733764643	2
0	176427	3005235.439176444979	1
0	176432	3005247.04121737319	0
0	176445	3005327.671196154503	1
0	176446	3005358.22297777115	0
0	176452	3005370.179633077079	1
0	176454	3005419.529595395999	2
0	176456	3005425.188007520716	3
0	176457	3005465.990825462578	2
0	176462	3005512.568923988222	1
0	176466	3005513.243212615277	2
0	176469	3005519.800857965897	1
0	176474	3005530.803431567941	0
0	176501	3005886.084602713134	1
0	176503	3005895.732598730395	2
0	176504	3005897.711718071341	1
0	176509	3005920.365026632577	0
0	176543	3006344.238815860113	1
0	176544	3006346.57448959801	0
0	176564	3006704.376119667678	1
0	176565	3006705.003284168745	0
0	176571	3006713.31336274744	1
0	176572	3006757.331726201421	0
0	176627	3008352.412621196919	1
0	176628	3008413.338680553041	0
0	176634	3008417.052542342254	1
0	176635	3008473.140957897067	0
0	176648	3008800.111928795143	1
0	176649	3008808.372418932074	0
0	176685	3009520.510919718862	1
0	176686	3009524.112802994963	0
0	176700	3010229.645008750536	1
0	176701	3010267.76969581743	0
0	176707	3010449.52713330592	1
0	176709	3010583.995903363162	2
0	176711	3010663.306060090819	3
0	176713	3010688.018366391221	4
0	176715	3010921.497644586036	5
0	176717	3010967.853450951646	6
0	176718	3011071.349036510481	5
0	176720	3011088.512263621641	4
0	176729	3011193.033464089716	3
0	176735	3011260.055791708148	4
0	176737	3011303.362473935874	5
0	176739	3011310.987199687172	6
0	176740	3011336.135039741682	5
0	176746	3011378.249728466024	6
0	176748	3011424.64058082968	7
0	176750	3011487.140823282074	8
0	176751	3011572.710446724635	7
0	176756	3011612.691332966021	6
0	176761	3011629.782604338608	5
0	176767	3011713.817443605757	6
0	176769	3011729.358127638614	7
0	176771	3011764.698419081697	8
0	176773	3011790.449766328886	9
0	176774	3011790.808988258073	8
0	176779	3011818.724879535276	7
0	176784	3011853.455206745711	6
0	176789	3011882.702781569682	5
0	176794	3011891.651385471528	4
0	176799	3011963.154448694364	3
0	176804	3012021.80162510749	2
0	176809	3012048.273970405996	1
0	176814	3012075.491203114051	0
0	176841	3012741.233232426905	1
0	176843	3012743.68342388265	2
0	176844	3012760.176659276856	1
0	176847	3012761.545436355749	0
0	176855	3012844.929654457205	1
0	176857	3012915.690760353121	2
0	176858	3012924.010995711688	1
0	176863	3012945.790441759033	0
0	176897	3013218.046768869038	1
0	176898	3013267.773325936342	0
0	176925	3013790.684438316786	1
0	176926	3013826.0385969816	0
0	176939	3014045.153803691575	1
0	176941	3014118.574727762108	2
0	176942	3014125.982219458571	1
0	176946	3014126.315654778138	2
0	176949	3014127.43026681493	1
0	176954	3014181.151973023473	0
0	177002	3015196.232309962218	1
0	177003	3015225.83788080178	0
0	177017	3015819.751666301299	1
0	177019	3015907.285121620029	2
0	177021	3016029.304539555396	3
0	177023	3016173.109400651797	4
0	177025	3016177.218651661873	5
0	177027	3016607.109354729384	6
0	177028	3016714.626161060142	5
0	177033	3016835.657546534606	4
0	177039	3017095.170857011138	5
0	177040	3017438.403466820063	4
0	177045	3017462.080578289406	5
0	177047	3017466.848252973164	6
0	177049	3017534.50228826752	7
0	177051	3017755.751075247646	8
0	177052	3017787.993695807148	7
0	177055	3017926.808852682155	6
0	177061	3017996.120123162685	7
0	177062	3018024.183551319988	6
0	177067	3018070.440107313757	5
0	177070	3018070.622026618437	4
0	177076	3018071.828948296089	5
0	177079	3018075.359890597107	4
0	177085	3018120.318407073251	5
0	177086	3018197.581160803493	4
0	177092	3018244.323199410264	5
0	177093	3018331.541464174962	4
0	177098	3018391.119620081741	3
0	177103	3018391.432760299321	2
0	177108	3018422.145897737033	1
0	177113	3018428.498418556224	0
0	177119	3018434.294867597889	1
0	177120	3018434.569145802373	0
0	177140	3018929.479994502126	1
0	177141	3018931.46597128722	0
0	177175	3019370.817202325619	1
0	177177	3019389.873134633461	2
0	177182	3019408.083402025049	1
0	177188	3019529.078955631438	2
0	177190	3019573.075793436575	3
0	177191	3019587.096030608388	2
0	177196	3019595.886702182537	1
0	177201	3019605.932076963101	0
0	177228	3020367.763921329843	1
0	177229	3020373.407971044346	0
0	177256	3020926.927620875745	1
0	177257	3020956.414631051855	0
0	177270	3021137.767812055567	1
0	177271	3021149.895576295678	0
0	177298	3022050.977078036409	1
0	177299	3022052.451240173855	0
0	177305	3022054.449488404503	1
0	177306	3022062.520072328753	0
0	177323	3022330.428879729041	1
0	177329	3022450.452383331428	2
0	177330	3022452.953243478729	1
0	177335	3022498.400366697367	2
0	177336	3022663.341651137246	1
0	177342	3022836.123213114484	2
0	177344	3022904.856288487493	3
0	177346	3022908.426132923817	4
0	177348	3022987.473120160651	5
0	177349	3023131.153944530773	4
0	177355	3023236.410061691161	5
0	177357	3023457.591119650204	6
0	177359	3023476.18597900595	7
0	177361	3023506.089532006069	8
0	177362	3023535.678098215166	7
0	177367	3023703.655809206137	6
0	177369	3023704.650121607117	5
0	177374	3023754.214604489389	4
0	177379	3023756.865222465751	3
0	177384	3023782.414962878722	2
0	177389	3023797.124319147293	1
0	177394	3023851.825416894635	0
0	177425	3024452.293407880812	1
0	177427	3024459.885851181054	2
0	177428	3024461.691918583481	1
0	177433	3024527.159026006221	0
0	177467	3024888.586334552652	1
0	177469	3024950.099040872139	2
0	177470	3025049.657093672437	1
0	177475	3025062.504870591185	0
0	177495	3025263.095294848393	1
0	177496	3025352.497582774399	0
0	177502	3025438.33623764207	1
0	177503	3025467.792701625749	0
0	177530	3025838.064189943807	1
0	177531	3025893.700930408696	0
0	177537	3025901.346809749534	1
0	177539	3025902.704012714489	2
0	177540	3025921.103324497922	1
0	177546	3025978.521217216268	2
0	177547	3026043.446435017999	1
0	177552	3026126.121283129437	0
0	177600	3027014.404775072556	1
0	177601	3027037.09153685725	0
0	177670	3028833.700806418695	1
0	177672	3028834.437322592481	2
0	177673	3028888.352291908008	1
0	177679	3028904.812757429547	2
0	177680	3028919.990524452704	1
0	177685	3029005.764984451917	0
0	177705	3029364.620262973256	1
0	177706	3029384.325175550909	0
0	177712	3029395.472008011566	1
0	177713	3029397.452735567815	0
0	177733	3029541.660473938193	1
0	177734	3029553.031336550067	0
0	177747	3029705.349395774286	1
0	177748	3029723.344313749272	0
0	177762	3029969.6134094201	1
0	177764	3030098.372825539037	2
0	177766	3030138.07154545191	3
0	177767	3030176.943706770943	2
0	177769	3030189.037009083105	1
0	177775	3030228.08237840419	2
0	177776	3030256.548792426659	1
0	177781	3030258.802635719076	0
0	177791	3030324.359430888296	1
0	177792	3030344.952400960922	0
0	177826	3030918.765774436764	1
0	177828	3030923.100301977602	2
0	177830	3030995.215112483386	3
0	177832	3030995.753917888862	4
0	177833	3031009.438701516819	3
0	177838	3031030.138409738179	2
0	177843	3031045.021437487024	1
0	177848	3031050.96500529168	0
0	177854	3031068.214598224283	1
0	177856	3031077.320714913959	2
0	177857	3031081.311656605379	1
0	177862	3031085.696967866726	0
0	177875	3031135.183547208655	1
0	177876	3031147.478010880824	0
0	177889	3031638.734406889523	1
0	177890	3031687.372487584913	0
0	177967	3033487.357703804399	1
0	177969	3033585.372732802208	2
0	177971	3033587.3863080937	3
0	177973	3033608.501336009319	4
0	177975	3033992.787267376844	5
0	177976	3034135.075644475915	4
0	177982	3034209.62061192584	5
0	177984	3034227.267292302417	6
0	177985	3034243.639169888581	5
0	177991	3034313.132278267673	6
0	177993	3034430.949917519814	7
0	177995	3034552.965781687248	8
0	177997	3034604.779077911465	9
0	177999	3034759.145518506282	10
0	178001	3034849.936527361833	11
0	178002	3034888.924435967187	10
0	178006	3034931.039861422047	9
0	178011	3034940.997842481927	10
0	178013	3034979.297332060012	11
0	178015	3035042.857237165568	12
0	178017	3035220.575137895317	13
0	178019	3035243.679999623955	14
0	178021	3035245.093284105892	15
0	178023	3035262.917378082248	16
0	178025	3035306.903488724536	17
0	178027	3035350.740226567867	18
0	178028	3035353.021392808698	17
0	178032	3035442.852273723715	16
0	178037	3035477.023402621236	15
0	178039	3035494.656279732621	14
0	178044	3035525.165928588232	13
0	178049	3035541.692128195587	12
0	178058	3035564.960320869283	11
0	178063	3035579.331671302192	10
0	178069	3035585.722427992235	11
0	178071	3035647.580412831158	12
0	178072	3035683.560694677559	11
0	178079	3035746.304857535868	12
0	178080	3035752.501618558577	11
0	178083	3035795.940130764639	12
0	178085	3035798.108959899384	13
0	178091	3035983.816622062357	14
0	178093	3036014.331394466533	15
0	178095	3036222.196217772451	16
0	178097	3036244.283273890813	17
0	178098	3036278.658930991639	16
0	178104	3036298.903822998015	15
0	178110	3036314.944638656733	16
0	178111	3036332.814141420484	15
0	178116	3036342.349960055888	14
0	178121	3036347.757777953083	13
0	178127	3036392.804649678496	14
0	178129	3036485.576263315938	13
0	178134	3036502.892467784726	12
0	178139	3036604.341456483399	11
0	178142	3036605.265842358567	10
0	178151	3036735.52983826892	11
0	178153	3036800.446573569732	12
0	178155	3036917.460062151156	13
0	178157	3037086.657462416906	14
0	178158	3037180.596282106411	13
0	178163	3037278.267140895259	14
0	178164	3037363.69730590374	13
0	178169	3037449.652967378671	12
0	178174	3037754.848821008218	11
0	178180	3037811.66999641268	12
0	178182	3037965.258582266095	13
0	178183	3037965.788156809519	12
0	178188	3038038.062956241967	11
0	178193	3038071.732535807097	10
0	178199	3038081.720740142958	11
0	178200	3038086.76541440881	10
0	178206	3038110.677918358311	11
0	178208	3038160.205973782334	12
0	178209	3038205.441802907054	11
0	178211	3038208.409764034932	10
0	178217	3038240.232544841204	11
0	178223	3038285.236605527425	12
0	178224	3038291.217591127247	11
0	178230	3038362.000521183067	12
0	178231	3038406.945189807429	11
0	178236	3038446.486524688385	10
0	178241	3038504.72762922588	9
0	178247	3038505.560112697051	10
0	178248	3038569.953812477902	9
0	178254	3038589.481893444365	10
0	178255	3038600.729965107779	9
0	178260	3038611.067487608777	8
0	178265	3038627.767406898482	7
0	178271	3038630.731605065313	8
0	178272	3038672.832095711658	7
0	178277	3038681.242908711178	6
0	178282	3038687.485451648544	5
0	178288	3038694.983429276361	6
0	178289	3038696.801935903622	5
0	178294	3038762.823989568212	4
0	178299	3038781.231588547008	3
0	178304	3038794.642070685886	2
0	178309	3038798.011497413292	1
0	178314	3038801.99071530995	0
0	178334	3039107.532824643531	1
0	178335	3039133.648188994428	0
0	178341	3039170.443462571705	1
0	178342	3039203.294695682428	0
0	178348	3039214.860363991925	1
0	178349	3039216.759252333662	0
0	178390	3040124.81554367668	1
0	178391	3040155.820422454011	0
0	178460	3041031.239525393369	1
0	178461	3041059.806552811293	0
0	178467	3041065.143323168119	1
0	178469	3041099.484529504181	2
0	178470	3041099.956266309512	1
0	178475	3041133.242121985384	0
0	178502	3041663.627605756654	1
0	178503	3041692.690657321085	0
0	178524	3042373.012082841103	1
0	178526	3042555.343761713253	2
0	178528	3042630.693926867769	3
0	178530	3042636.958317421805	4
0	178531	3042704.128064572631	3
0	178537	3042776.577837557672	4
0	178539	3042790.547873386082	5
0	178541	3042935.466573136807	6
0	178543	3042967.283639214994	7
0	178545	3043014.846195394701	8
0	178546	3043019.911979389472	7
0	178552	3043155.44611403952	8
0	178554	3043168.900784170074	9
0	178556	3043241.602285434492	10
0	178557	3043270.202139777395	9
0	178561	3043372.059434089195	8
0	178567	3043398.642268195573	9
0	178569	3043678.222629559104	10
0	178570	3043699.409196088956	9
0	178574	3043802.391190605843	8
0	178579	3043855.837241234855	9
0	178581	3043981.547656037232	10
0	178583	3044030.712446038061	11
0	178585	3044183.192980928277	12
0	178586	3044193.540626774572	11
0	178590	3044201.772036817009	10
0	178595	3044273.423930818823	11
0	178597	3044313.884010530579	12
0	178599	3044319.225204855257	13
0	178600	3044371.413216400315	12
0	178604	3044383.732916490239	11
0	178609	3044409.293405152627	10
0	178614	3044427.56116601349	11
0	178616	3044462.721414369376	12
0	178618	3044528.948579796753	13
0	178619	3044592.806781841711	12
0	178621	3044593.51637668322	11
0	178626	3044630.294953730984	10
0	178632	3044651.945770870695	11
0	178633	3044706.354942437906	10
0	178642	3044717.058284476882	9
0	178647	3044765.173103242774	8
0	178652	3044815.59653412488	7
0	178658	3044882.545131239041	8
0	178659	3044897.110540194995	7
0	178664	3044904.134391110799	6
0	178669	3044960.460808803655	5
0	178674	3044974.251884633479	4
0	178679	3045020.036013371258	3
0	178684	3045045.877084828871	2
0	178689	3045068.420403774908	1
0	178694	3045077.5758239748	0
0	178700	3045090.68727863901	1
0	178701	3045120.83498002107	0
0	178721	3045897.201439792511	1
0	178722	3045911.337109360086	0
0	178742	3046375.503433783847	1
0	178743	3046386.093092492224	0
0	178770	3046668.607317175105	1
0	178771	3046721.964194439109	0
0	178777	3046728.060636141822	1
0	178779	3046775.747342151669	2
0	178780	3046778.027184343003	1
0	178786	3046797.139463750495	2
0	178787	3046834.282758577926	1
0	178792	3046968.348764512595	0
0	178889	3048983.302357164154	1
0	178891	3048985.786248794279	2
0	178893	3049028.709669475294	3
0	178894	3049078.897248299522	2
0	178900	3049143.435310233901	3
0	178901	3049168.73867131354	2
0	178906	3049181.489125306867	1
0	178911	3049216.826411395458	0
0	178987	3051410.017942278943	1
0	178988	3051434.249902481492	0
0	179024	3052266.176601898652	1
0	179025	3052278.751906965655	0
0	179087	3053737.995708047114	1
0	179088	3053751.672018492093	0
0	179150	3054975.492521404865	1
0	179151	3054978.233940485214	0
0	179157	3055003.307941258717	1
0	179158	3055032.114057610153	0
0	179171	3055119.207671899095	1
0	179173	3055124.412982640689	2
0	179174	3055287.656114256438	1
0	179179	3055323.199880980019	0
0	179206	3055844.078946223281	1
0	179207	3055876.569382720065	0
0	179213	3055959.58446263458	1
0	179215	3055998.431408209317	2
0	179217	3056010.896430113769	3
0	179218	3056045.037018033067	2
0	179224	3056049.981097533548	3
0	179226	3056091.700551430626	4
0	179227	3056120.201435682047	3
0	179233	3056200.23589429055	4
0	179234	3056232.153441348351	3
0	179238	3056232.307452862068	4
0	179241	3056261.003316421971	3
0	179246	3056288.701222738201	2
0	179251	3056291.244322918632	1
0	179256	3056309.073653684048	0
0	179290	3056827.826090508022	1
0	179291	3056831.771838962103	0
0	179297	3056839.828455970049	1
0	179298	3056848.919397440206	0
0	179381	3058862.736940788951	1
0	179382	3058883.992788602757	0
0	179388	3058939.737558014174	1
0	179390	3058980.28243340992	2
0	179392	3058980.873599017966	3
0	179393	3059002.017525072673	2
0	179398	3059009.450091773445	1
0	179403	3059015.450599916276	0
0	179423	3059700.003804946741	1
0	179424	3059711.571935119828	0
0	179509	3061428.595585706259	1
0	179510	3061458.149763227826	0
0	179523	3061657.219358149158	1
0	179524	3061687.610132146087	0
0	179565	3062984.069513923604	1
0	179567	3062986.643060256383	2
0	179568	3063004.234527015398	1
0	179574	3063050.557974765053	2
0	179576	3063050.973522259832	3
0	179577	3063249.13429430679	2
0	179582	3063291.881625147915	1
0	179588	3063297.457838412407	2
0	179589	3063376.952561727375	1
0	179594	3063447.000083103416	0
0	179600	3063523.713829961872	1
0	179601	3063531.848720626971	0
0	179614	3063803.48703571252	1
0	179615	3063832.619379643465	0
0	179656	3064445.786018137294	1
0	179658	3064486.85332058115	2
0	179659	3064515.41319184147	1
0	179664	3064576.054564459894	0
0	179698	3064894.596681303774	1
0	179699	3064921.104988924385	0
0	179712	3065707.520670976508	1
0	179714	3065721.838004670076	2
0	179715	3065729.803876307359	1
0	179720	3065829.958816348012	0
0	179775	3067165.263843265936	1
0	179777	3067213.23795578353	2
0	179778	3067264.606040858326	1
0	179783	3067317.194762971054	0
0	179810	3067541.228595475989	1
0	179811	3067585.922868639482	0
0	179817	3067619.812976012589	1
0	179818	3067624.845816540231	0
0	179831	3067711.372339865981	1
0	179832	3067746.077514569496	0
0	179860	3068030.682381559869	1
0	179862	3068115.579662532775	2
0	179864	3068197.263096766997	3
0	179866	3068300.911476854146	4
0	179867	3068304.053465724528	3
0	179873	3068430.554389321665	4
0	179874	3068466.985921873949	3
0	179879	3068557.557503540047	2
0	179885	3068857.878518145748	3
0	179887	3068870.995851911266	4
0	179889	3068993.549396571512	5
0	179890	3069240.426708007511	4
0	179896	3069443.917506315945	5
0	179898	3069594.722519265452	6
0	179900	3069698.91577240467	7
0	179902	3069712.545602901287	8
0	179903	3069927.8588477528	7
0	179909	3069952.782752597766	8
0	179910	3069989.368097686961	7
0	179916	3070020.09364688267	8
0	179917	3070127.356772206805	7
0	179922	3070215.334864195497	8
0	179924	3070308.194034016696	9
0	179925	3070430.350555192997	8
0	179931	3070453.622060941859	9
0	179933	3070505.069278658314	10
0	179934	3070534.78857054103	9
0	179940	3070544.975175113206	10
0	179942	3070619.105174555287	11
0	179943	3070647.753000454768	10
0	179949	3070659.814666413791	11
0	179950	3070704.271326187312	10
0	179955	3070706.727023951813	9
0	179961	3070728.620459113367	10
0	179963	3070798.51481804219	11
0	179964	3071309.861202052708	10
0	179970	3071366.311377023671	11
0	179972	3071581.531218642539	12
0	179973	3071663.225682179391	11
0	179977	3071773.65709483415	10
0	179982	3071807.65393276315	11
0	179983	3071958.98820200207	10
0	179989	3071973.734556598872	11
0	179990	3071997.287153971937	10
0	179996	3072091.145347983782	11
0	179998	3072164.86686983238	12
0	179999	3072233.568943842094	11
0	180003	3072258.965380113042	10
0	180009	3072283.585219305553	11
0	180010	3072303.107753916219	10
0	180015	3072378.620074850169	11
0	180017	3072401.977208059254	12
0	180018	3072532.816555008979	11
0	180024	3072545.175980081845	12
0	180025	3072558.642826458681	11
0	180031	3072654.775221237592	12
0	180033	3072667.502469317803	13
0	180034	3072787.960849792365	12
0	180039	3072808.556741408652	13
0	180041	3072849.765637133375	14
0	180042	3072867.394293123412	13
0	180047	3072877.267689423339	14
0	180049	3072955.750396551719	15
0	180051	3073053.737698434792	16
0	180053	3073099.682308893883	17
0	180055	3073425.389014637278	18
0	180057	3073475.007846791305	19
0	180059	3073476.050473774288	20
0	180061	3073548.198619917361	21
0	180063	3073582.799420553084	22
0	180065	3073673.12885099821	23
0	180067	3073760.286410703395	24
0	180069	3073790.54328846802	25
0	180070	3073806.263126430352	24
0	180075	3073892.050238119652	25
0	180077	3073901.712743221731	26
0	180078	3073937.860181791055	25
0	180081	3073941.822036454578	26
0	180083	3073977.386680988579	27
0	180090	3074052.813540276738	28
0	180092	3074094.868743518741	29
0	180094	3074142.175622504472	30
0	180096	3074270.862863005581	31
0	180097	3074289.784944772195	30
0	180103	3074479.232199308507	31
0	180105	3074596.597108860097	32
0	180107	3074664.589074660604	33
0	180109	3074664.757732329476	34
0	180110	3074698.149517537307	33
0	180116	3074737.47273439211	34
0	180118	3074797.163779831192	35
0	180119	3074836.968337920649	34
0	180125	3074837.986212109226	35
0	180127	3074878.125879908584	36
0	180129	3075087.816335066985	37
0	180131	3075108.490461867442	38
0	180133	3075344.721078937581	39
0	180135	3075390.194933184582	40
0	180136	3075473.735171653843	39
0	180142	3075505.420965130948	40
0	180143	3075639.034972587195	39
0	180149	3075657.711308770916	40
0	180150	3075669.587343023592	39
0	180155	3075702.856337725616	40
0	180157	3075794.685351662207	41
0	180158	3075821.225553487505	40
0	180163	3076133.612650809062	39
0	180168	3076168.091764313438	40
0	180170	3076170.996318470324	41
0	180172	3076176.15929312732	42
0	180174	3076223.064920281664	43
0	180175	3076288.040848386279	42
0	180178	3076310.403986344559	41
0	180184	3076347.738308141159	42
0	180185	3076354.141285918173	41
0	180190	3076451.346154018754	40
0	180195	3076466.695547643298	39
0	180201	3076472.601434109868	40
0	180202	3076477.485919634435	39
0	180207	3076480.690657743139	38
0	180212	3076503.026783137641	37
0	180217	3076508.570644780465	36
0	180222	3076532.484680793811	35
0	180227	3076577.603831859486	34
0	180233	3076645.580748036183	35
0	180234	3076679.108771821385	34
0	180239	3076687.840845312666	33
0	180244	3076699.65391934848	32
0	180249	3076700.933318848647	31
0	180254	3076773.123982334949	30
0	180259	3076786.964019305964	29
0	180265	3076793.002185692466	30
0	180266	3076927.815844520754	29
0	180271	3076939.742923148128	28
0	180280	3077025.493931020572	27
0	180286	3077134.568562449418	26
0	180291	3077157.084149542678	25
0	180298	3077189.023044077852	26
0	180299	3077262.778214157724	25
0	180304	3077267.926710342982	24
0	180307	3077268.589744558025	23
0	180314	3077311.02198477011	22
0	180320	3077382.950719269774	23
0	180321	3077422.16709040641	22
0	180327	3077427.851096843876	23
0	180328	3077435.451299007557	22
0	180334	3077467.63550422515	23
0	180335	3077470.527727960895	22
0	180340	3077517.437385773036	21
0	180346	3077525.145922819141	22
0	180348	3077528.953688268994	23
0	180350	3077541.099706618405	24
0	180351	3077604.354851347248	23
0	180357	3077634.743589467469	24
0	180358	3077720.854723331961	23
0	180363	3077729.074321831073	22
0	180366	3077731.303294975709	21
0	180371	3077731.845252633017	20
0	180378	3077740.074480614333	19
0	180383	3077745.080721083686	18
0	180388	3077746.214807634178	17
0	180393	3077777.523808354056	16
0	180398	3077780.139222661941	15
0	180403	3077789.041961850878	14
0	180407	3077789.285927775509	15
0	180410	3077834.700545949177	14
0	180415	3077846.663610174564	13
0	180420	3077881.124045745663	12
0	180425	3077907.012819197962	11
0	180431	3077938.893505103909	12
0	180432	3077940.525285044699	11
0	180438	3077949.371842232066	12
0	180440	3077959.87721084716	13
0	180442	3078054.007577172614	14
0	180443	3078067.098666233406	13
0	180448	3078075.748986226451	12
0	180453	3078078.637607487516	11
0	180458	3078103.876817717481	10
0	180464	3078128.692566754345	11
0	180465	3078139.704096050769	10
0	180470	3078158.673899667777	9
0	180475	3078160.171101380374	8
0	180479	3078161.835206984882	9
0	180482	3078226.78299309843	8
0	180487	3078286.364980899359	7
0	180492	3078351.14147848462	6
0	180497	3078406.4397402582	5
0	180502	3078410.269183260369	4
0	180507	3078419.34434400925	3
0	180513	3078422.675081375922	4
0	180514	3078424.436747300097	3
0	180519	3078434.029862629331	2
0	180525	3078441.378163641565	3
0	180526	3078455.137694013333	2
0	180532	3078475.881310675188	3
0	180533	3078504.726849876358	2
0	180538	3078543.88284620198	1
0	180543	3078577.471557223462	0
0	180563	3078805.076553647211	1
0	180565	3078836.860587862768	2
0	180566	3078852.385255467141	1
0	180571	3078854.881661552869	0
0	180577	3078860.675269516815	1
0	180578	3078871.217085155828	0
0	180584	3078871.791228817165	1
0	180585	3078958.270255962009	0
0	180598	3079098.239505061012	1
0	180599	3079132.822154765272	0
0	180605	3079137.035290940907	1
0	180607	3079161.557381918437	2
0	180608	3079188.551704643035	1
0	180613	3079212.610070547996	0
0	180633	3079338.966620625721	1
0	180634	3079405.668861532127	0
0	180668	3079908.14188809204	1
0	180669	3079933.518245887058	0
0	180682	3079982.79664860875	1
0	180683	3079986.817991717749	0
0	180689	3080027.230388594864	1
0	180691	3080049.365427006616	2
0	180692	3080083.368037643109	1
0	180697	3080092.133372254624	0
0	180703	3080114.537001002753	1
0	180704	3080201.51750216567	0
0	180717	3080438.949842570387	1
0	180719	3080456.894096179231	2
0	180720	3080496.64870797104	1
0	180725	3080498.062152099181	0
0	180731	3080518.507681169041	1
0	180732	3080564.920509237036	0
0	180773	3080897.388439938041	1
0	180774	3080933.679881351594	0
0	180794	3081076.995595885573	1
0	180795	3081085.45319924884	0
0	180801	3081129.511708057336	1
0	180802	3081147.071406858505	0
0	180829	3081437.218428236313	1
0	180830	3081439.987978803631	0
0	180871	3082066.489762117005	1
0	180873	3082074.572880991676	2
0	180874	3082148.618019368978	1
0	180879	3082234.873977222706	0
0	180913	3082574.062607891688	1
0	180914	3082586.775047100652	0
0	180941	3082922.808338877686	1
0	180942	3082934.198394982193	0
0	180971	3083456.681827099734	1
0	180972	3083468.671775174792	0
0	181020	3084684.219317353219	1
0	181022	3084705.65245684498	2
0	181023	3084761.907909026916	1
0	181028	3084795.748632657629	0